********************************************************************************
*                       GENERAL UTILITY LATTICE PROGRAM                        *
*                                 Julian Gale                                  *
*                       Curtin Institute for Computation                       *
*                    School of Molecular and Life Sciences                     *
*                    Curtin University, Western Australia                      *
********************************************************************************
* Version = 6.1.2 * Last modified =   3rd November 2022                        *
********************************************************************************
*  optimise     - perform optimisation run                                     *
*  conv         - constant volume calculation                                  *
*  property     - calculate properties for final geometry                      *
*  phonon       - calculate phonons for final geometry                         *
*  nosymmetry   - turn off symmetry after initial structure generation         *
*  full         - generate full unit cell when symmetry is removed             *
********************************************************************************

  Job Started  at 16:20.58 26th June       2024                               

  Number of CPUs =   128

  Host name      = nid001986                               


  Total number of configurations input =      1

********************************************************************************
*  Input for Configuration =   1                                               *
********************************************************************************

  Formula = TcMn23LiO48                                                 

  Number of irreducible atoms/shells =     122


  Total number atoms/shells =     122

  Dimensionality = 3               :  Bulk   



  Cartesian lattice vectors (Angstroms) :

        8.872874    0.000000    0.000000
        0.000000    9.432501    0.000000
        0.000000    0.000000    8.565761

  Cell parameters (Angstroms/Degrees):

  a =       8.8729    alpha =  90.0000
  b =       9.4325    beta  =  90.0000
  c =       8.5658    gamma =  90.0000

  Initial cell volume =         716.897611 Angs**3

  Temperature of configuration =   0.00     K 

  Pressure of configuration =         0.000 GPa 

  Fractional coordinates of asymmetric unit :

--------------------------------------------------------------------------------
   No.  Atomic       x           y          z         Charge      Occupancy
        Label      (Frac)      (Frac)     (Frac)        (e)         (Frac)  
--------------------------------------------------------------------------------
      1 Tc    c    0.629539 *  0.236189 *  0.082344 *   1.97100    1.000000    
      2 Mn    c    0.835959 *  0.992919 *  0.916793 *   4.00000    1.000000    
      3 Mn    c    0.623630 *  0.752215 *  0.082954 *   4.00000    1.000000    
      4 Mn    c    0.332805 *  0.756110 *  0.916969 *   4.00000    1.000000    
      5 Mn    c    0.831194 *  0.999406 *  0.584096 *   4.00000    1.000000    
      6 Mn    c    0.120777 *  0.508291 *  0.750342 *   4.00000    1.000000    
      7 Mn    c    0.622187 *  0.748134 *  0.417309 *   4.00000    1.000000    
      8 Mn    c    0.330654 *  0.259907 *  0.583957 *   4.00000    1.000000    
      9 Mn    c    0.620043 *  0.249095 *  0.416478 *   4.00000    1.000000    
     10 Mn    c    0.835483 *  0.992921 *  0.250167 *   4.00000    1.000000    
     11 Mn    c    0.121338 *  0.006243 *  0.418544 *   4.00000    1.000000    
     12 Mn    c    0.619649 *  0.250150 *  0.750757 *   4.00000    1.000000    
     13 Mn    c    0.831559 *  0.497706 *  0.915550 *   4.00000    1.000000    
     14 Mn    c    0.622214 *  0.747466 *  0.749863 *   4.00000    1.000000    
     15 Mn    c    0.330777 *  0.259735 *  0.917430 *   4.00000    1.000000    
     16 Mn    c    0.121421 *  0.507297 *  0.417565 *   4.00000    1.000000    
     17 Mn    c    0.833187 *  0.499792 *  0.252147 *   4.00000    1.000000    
     18 Mn    c    0.332663 *  0.756144 *  0.583859 *   4.00000    1.000000    
     19 Mn    c    0.327145 *  0.250264 *  0.251552 *   4.00000    1.000000    
     20 Mn    c    0.122963 *  0.004377 *  0.083213 *   4.00000    1.000000    
     21 Mn    c    0.329382 *  0.759729 *  0.250918 *   4.00000    1.000000    
     22 Mn    c    0.123366 *  0.007254 *  0.749843 *   4.00000    1.000000    
     23 Mn    c    0.121151 *  0.503619 *  0.083771 *   4.00000    1.000000    
     24 Mn    c    0.831407 *  0.497699 *  0.583798 *   4.00000    1.000000    
     25 Li    c    0.484966 *  0.491282 *  0.187364 *   1.00000    1.000000    
     26 O     c    0.030553 *  0.061135 *  0.250534 *   0.51300    1.000000    
     27 O     c    0.400688 *  0.332631 *  0.088746 *   0.51300    1.000000    
     28 O     c    0.517936 *  0.189214 *  0.258226 *   0.51300    1.000000    
     29 O     c    0.921887 *  0.440419 *  0.084417 *   0.51300    1.000000    
     30 O     c    0.248783 *  0.154469 *  0.084751 *   0.51300    1.000000    
     31 O     c    0.201536 *  0.408801 *  0.253232 *   0.51300    1.000000    
     32 O     c    0.759425 *  0.077836 *  0.083946 *   0.51300    1.000000    
     33 O     c    0.700612 *  0.359304 *  0.267048 *   0.51300    1.000000    
     34 O     c    0.029081 *  0.563947 *  0.249207 *   0.51300    1.000000    
     35 O     c    0.425786 *  0.812755 *  0.085802 *   0.51300    1.000000    
     36 O     c    0.528124 *  0.681660 *  0.247639 *   0.51300    1.000000    
     37 O     c    0.931646 *  0.932943 *  0.084125 *   0.51300    1.000000    
     38 O     c    0.253974 *  0.655339 *  0.086141 *   0.51300    1.000000    
     39 O     c    0.205529 *  0.907812 *  0.251415 *   0.51300    1.000000    
     40 O     c    0.744807 *  0.595749 *  0.085483 *   0.51300    1.000000    
     41 O     c    0.703386 *  0.843171 *  0.250708 *   0.51300    1.000000    
     42 O     c    0.028721 *  0.062721 *  0.583958 *   0.51300    1.000000    
     43 O     c    0.419600 *  0.319536 *  0.415076 *   0.51300    1.000000    
     44 O     c    0.526717 *  0.194834 *  0.582884 *   0.51300    1.000000    
     45 O     c    0.926883 *  0.443961 *  0.418000 *   0.51300    1.000000    
     46 O     c    0.247155 *  0.157035 *  0.418420 *   0.51300    1.000000    
     47 O     c    0.203238 *  0.410338 *  0.583385 *   0.51300    1.000000    
     48 O     c    0.749417 *  0.095749 *  0.415046 *   0.51300    1.000000    
     49 O     c    0.704333 *  0.346715 *  0.582624 *   0.51300    1.000000    
     50 O     c    0.029948 *  0.566153 *  0.583249 *   0.51300    1.000000    
     51 O     c    0.426802 *  0.811264 *  0.414919 *   0.51300    1.000000    
     52 O     c    0.528576 *  0.691670 *  0.582956 *   0.51300    1.000000    
     53 O     c    0.925177 *  0.940386 *  0.418021 *   0.51300    1.000000    
     54 O     c    0.250712 *  0.659178 *  0.415510 *   0.51300    1.000000    
     55 O     c    0.206262 *  0.907697 *  0.582994 *   0.51300    1.000000    
     56 O     c    0.749143 *  0.599408 *  0.417449 *   0.51300    1.000000    
     57 O     c    0.703443 *  0.847345 *  0.583150 *   0.51300    1.000000    
     58 O     c    0.030314 *  0.060462 *  0.917017 *   0.51300    1.000000    
     59 O     c    0.420958 *  0.318861 *  0.749266 *   0.51300    1.000000    
     60 O     c    0.517030 *  0.191627 *  0.909809 *   0.51300    1.000000    
     61 O     c    0.927306 *  0.444868 *  0.748977 *   0.51300    1.000000    
     62 O     c    0.247242 *  0.159234 *  0.749153 *   0.51300    1.000000    
     63 O     c    0.200207 *  0.409250 *  0.915248 *   0.51300    1.000000    
     64 O     c    0.748694 *  0.094707 *  0.750909 *   0.51300    1.000000    
     65 O     c    0.708247 *  0.352451 *  0.899202 *   0.51300    1.000000    
     66 O     c    0.028337 *  0.563931 *  0.919195 *   0.51300    1.000000    
     67 O     c    0.426037 *  0.811466 *  0.750562 *   0.51300    1.000000    
     68 O     c    0.529087 *  0.691675 *  0.919159 *   0.51300    1.000000    
     69 O     c    0.926290 *  0.940663 *  0.749141 *   0.51300    1.000000    
     70 O     c    0.249781 *  0.659068 *  0.751080 *   0.51300    1.000000    
     71 O     c    0.206505 *  0.906228 *  0.917484 *   0.51300    1.000000    
     72 O     c    0.749285 *  0.598768 *  0.749080 *   0.51300    1.000000    
     73 O     c    0.705902    0.844041    0.916685     0.51300    1.000000    
     74 Tc    s    0.629539 *  0.236189 *  0.082344 *   1.02900    1.000000    
     75 O     s    0.030553 *  0.061135 *  0.250534 *  -2.51300    1.000000    
     76 O     s    0.400688 *  0.332631 *  0.088746 *  -2.51300    1.000000    
     77 O     s    0.517936 *  0.189214 *  0.258226 *  -2.51300    1.000000    
     78 O     s    0.921887 *  0.440419 *  0.084417 *  -2.51300    1.000000    
     79 O     s    0.248783 *  0.154469 *  0.084751 *  -2.51300    1.000000    
     80 O     s    0.201536 *  0.408801 *  0.253232 *  -2.51300    1.000000    
     81 O     s    0.759425 *  0.077836 *  0.083946 *  -2.51300    1.000000    
     82 O     s    0.700612 *  0.359304 *  0.267048 *  -2.51300    1.000000    
     83 O     s    0.029081 *  0.563947 *  0.249207 *  -2.51300    1.000000    
     84 O     s    0.425786 *  0.812755 *  0.085802 *  -2.51300    1.000000    
     85 O     s    0.528124 *  0.681660 *  0.247639 *  -2.51300    1.000000    
     86 O     s    0.931646 *  0.932943 *  0.084125 *  -2.51300    1.000000    
     87 O     s    0.253974 *  0.655339 *  0.086141 *  -2.51300    1.000000    
     88 O     s    0.205529 *  0.907812 *  0.251415 *  -2.51300    1.000000    
     89 O     s    0.744807 *  0.595749 *  0.085483 *  -2.51300    1.000000    
     90 O     s    0.703386 *  0.843171 *  0.250708 *  -2.51300    1.000000    
     91 O     s    0.028721 *  0.062721 *  0.583958 *  -2.51300    1.000000    
     92 O     s    0.419600 *  0.319536 *  0.415076 *  -2.51300    1.000000    
     93 O     s    0.526717 *  0.194834 *  0.582884 *  -2.51300    1.000000    
     94 O     s    0.926883 *  0.443961 *  0.418000 *  -2.51300    1.000000    
     95 O     s    0.247155 *  0.157035 *  0.418420 *  -2.51300    1.000000    
     96 O     s    0.203238 *  0.410338 *  0.583385 *  -2.51300    1.000000    
     97 O     s    0.749417 *  0.095749 *  0.415046 *  -2.51300    1.000000    
     98 O     s    0.704333 *  0.346715 *  0.582624 *  -2.51300    1.000000    
     99 O     s    0.029948 *  0.566153 *  0.583249 *  -2.51300    1.000000    
    100 O     s    0.426802 *  0.811264 *  0.414919 *  -2.51300    1.000000    
    101 O     s    0.528576 *  0.691670 *  0.582956 *  -2.51300    1.000000    
    102 O     s    0.925177 *  0.940386 *  0.418021 *  -2.51300    1.000000    
    103 O     s    0.250712 *  0.659178 *  0.415510 *  -2.51300    1.000000    
    104 O     s    0.206262 *  0.907697 *  0.582994 *  -2.51300    1.000000    
    105 O     s    0.749143 *  0.599408 *  0.417449 *  -2.51300    1.000000    
    106 O     s    0.703443 *  0.847345 *  0.583150 *  -2.51300    1.000000    
    107 O     s    0.030314 *  0.060462 *  0.917017 *  -2.51300    1.000000    
    108 O     s    0.420958 *  0.318861 *  0.749266 *  -2.51300    1.000000    
    109 O     s    0.517030 *  0.191627 *  0.909809 *  -2.51300    1.000000    
    110 O     s    0.927306 *  0.444868 *  0.748977 *  -2.51300    1.000000    
    111 O     s    0.247242 *  0.159234 *  0.749153 *  -2.51300    1.000000    
    112 O     s    0.200207 *  0.409250 *  0.915248 *  -2.51300    1.000000    
    113 O     s    0.748694 *  0.094707 *  0.750909 *  -2.51300    1.000000    
    114 O     s    0.708247 *  0.352451 *  0.899202 *  -2.51300    1.000000    
    115 O     s    0.028337 *  0.563931 *  0.919195 *  -2.51300    1.000000    
    116 O     s    0.426037 *  0.811466 *  0.750562 *  -2.51300    1.000000    
    117 O     s    0.529087 *  0.691675 *  0.919159 *  -2.51300    1.000000    
    118 O     s    0.926290 *  0.940663 *  0.749141 *  -2.51300    1.000000    
    119 O     s    0.249781 *  0.659068 *  0.751080 *  -2.51300    1.000000    
    120 O     s    0.206505 *  0.906228 *  0.917484 *  -2.51300    1.000000    
    121 O     s    0.749285 *  0.598768 *  0.749080 *  -2.51300    1.000000    
    122 O     s    0.705902 *  0.844041 *  0.916685 *  -2.51300    1.000000    
--------------------------------------------------------------------------------


  Brillouin zone sampling points :

--------------------------------------------------------------------------------
  Point number          x          y          z            Weight
--------------------------------------------------------------------------------
        1           0.000000   0.000000   0.000000     1.00000000
--------------------------------------------------------------------------------


********************************************************************************
*  General input information                                                   *
********************************************************************************

  Species output for all configurations : 

--------------------------------------------------------------------------------
  Species    Type    Atomic    Atomic    Charge       Radii (Angs)     Library
                     Number     Mass       (e)     Cova   Ionic  VDW   Symbol
--------------------------------------------------------------------------------
    Tc       Core       43      98.00   1.971000   1.350  0.000  2.010          
    Tc       Shell      43       0.00   1.029000   1.350  0.000  0.000          
    Mn       Core       25      54.94   4.000000   1.350  0.000  2.010          
    O        Core        8      16.00   0.513000   0.730  0.000  1.360          
    O        Shell       8       0.00  -2.513000   0.730  0.000  0.000          
    Li       Core        3       6.94   1.000000   0.680  0.000  1.800          
--------------------------------------------------------------------------------


  Lattice summation method               =    Ewald          (3-D)
                                         =    Parry          (2-D)
                                         =    Saunders et al (1-D)
  Accuracy factor for lattice sums       =   10.000


  Analytic derivatives to be used

  Time limit = Infinity

  Maximum range for interatomic potentials =    100000.000000 Angstroms

  General interatomic potentials :

--------------------------------------------------------------------------------
Atom  Types   Potential      Parameter       Value         Units   Cutoffs(Ang)
  1     2                                                            Min /  Max 
--------------------------------------------------------------------------------
Mn   c O    s Buckingham    Buckingham A     3087.8260    eV        0.000 25.000
                            Buckingham rho  0.26420000    Ang       
                            Buckingham C     0.0000000    eV*Ang^6  
--------------------------------------------------------------------------------
Li   c O    s Buckingham    Buckingham A     479.83700    eV        0.000 25.000
                            Buckingham rho  0.30000000    Ang       
                            Buckingham C     0.0000000    eV*Ang^6  
--------------------------------------------------------------------------------
O    s Tc   s Buckingham    Buckingham A     1686.1250    eV        0.000 25.000
                            Buckingham rho  0.29620000    Ang       
                            Buckingham C     0.0000000    eV*Ang^6  
--------------------------------------------------------------------------------
O    s O    s Buckingham    Buckingham A     22.410000    eV        0.000 25.000
                            Buckingham rho  0.69370000    Ang       
                            Buckingham C     32.320000    eV*Ang^6  
--------------------------------------------------------------------------------
O    s O    s Lennard       Lennard-Jones A  100.00000    eV*Ang^m  0.000 25.000
                            Lennard-Jones B  0.0000000    eV*Ang^n  
                            Exponent m        16          None
                            Exponent n         6          None
--------------------------------------------------------------------------------
O    c O    s Spring (c-s)  Spring k 2       20.530000    eV*Ang^-2 0.000  0.800
                            Spring k 4       0.0000000    eV*Ang^-4 
--------------------------------------------------------------------------------
Tc   c Tc   s Spring (c-s)  Spring k 2       148.00000    eV*Ang^-2 0.000  0.800
                            Spring k 4       0.0000000    eV*Ang^-4 
--------------------------------------------------------------------------------

********************************************************************************
*  Output for configuration   1                                                *
********************************************************************************


  Components of energy : 

--------------------------------------------------------------------------------
  Interatomic potentials     =         620.33189466 eV    
  Monopole - monopole (real) =       -2260.43744454 eV    
  Monopole - monopole (recip)=       -1368.29923320 eV    
  Monopole - monopole (total)=       -3628.73667774 eV    
--------------------------------------------------------------------------------
  Total lattice energy       =       -3008.40478307 eV    
--------------------------------------------------------------------------------
  Total lattice energy       =         -290265.0739 kJ/(mole unit cells)
--------------------------------------------------------------------------------


  Number of variables =      363

  Maximum number of calculations  =       1000000
  Maximum Hessian update interval =            10
  Maximum step size               =   1.000000000
  Maximum parameter tolerance     =   0.000000010
  Maximum function  tolerance     =   0.000000010
  Maximum gradient  tolerance     =   0.000000010
  Maximum gradient  component     =   0.010000000

  Cell parameters to be optimised using strains

  Newton-Raphson optimiser to be used

  BFGS hessian update to be used

  General 2-D hessian to be used

  Start of bulk optimisation :

  Cycle:      0 Energy:     -3008.404783  Gnorm:      0.721957  CPU:    0.193
  ** Hessian calculated **
  Cycle:      1 Energy:     -3018.655036  Gnorm:      0.458516  CPU:    0.371
  ** Hessian calculated **
  Cycle:      2 Energy:     -3022.167067  Gnorm:      0.218004  CPU:    0.472
  Cycle:      3 Energy:     -3023.066964  Gnorm:      0.086392  CPU:    0.479
  Cycle:      4 Energy:     -3023.304259  Gnorm:      0.037788  CPU:    0.489
  Cycle:      5 Energy:     -3023.365696  Gnorm:      0.017126  CPU:    0.496
  Cycle:      6 Energy:     -3023.375833  Gnorm:      0.009828  CPU:    0.506
  Cycle:      7 Energy:     -3023.379396  Gnorm:      0.004362  CPU:    0.513
  Cycle:      8 Energy:     -3023.380293  Gnorm:      0.004104  CPU:    0.521
  Cycle:      9 Energy:     -3023.380786  Gnorm:      0.002267  CPU:    0.529
  Cycle:     10 Energy:     -3023.380924  Gnorm:      0.000940  CPU:    0.538
  Cycle:     11 Energy:     -3023.380954  Gnorm:      0.000533  CPU:    0.546
  ** Hessian calculated **
  Cycle:     12 Energy:     -3023.380960  Gnorm:      0.000000  CPU:    0.644


  **** Optimisation achieved ****


  Final energy =   -3023.38095966 eV      
  Final Gnorm  =       0.00000000

  Components of energy : 

--------------------------------------------------------------------------------
  Interatomic potentials     =         627.43378781 eV    
  Monopole - monopole (real) =       -1995.05263242 eV    
  Monopole - monopole (recip)=       -1655.76211505 eV    
  Monopole - monopole (total)=       -3650.81474747 eV    
--------------------------------------------------------------------------------
  Total lattice energy       =       -3023.38095966 eV    
--------------------------------------------------------------------------------
  Total lattice energy       =         -291710.0460 kJ/(mole unit cells)
--------------------------------------------------------------------------------

  Final fractional coordinates of atoms :

--------------------------------------------------------------------------------
   No.  Atomic        x           y          z          Radius
        Label       (Frac)      (Frac)     (Frac)       (Angs) 
--------------------------------------------------------------------------------
     1  Tc    c     0.616743    0.234823    0.081810    0.000000
     2  Mn    c     0.838478    0.991312    0.918208    0.000000
     3  Mn    c     0.618404    0.749680    0.083353    0.000000
     4  Mn    c     0.334742    0.762359    0.918108    0.000000
     5  Mn    c     0.832892    0.000735    0.585898    0.000000
     6  Mn    c     0.115290    0.514903    0.751029    0.000000
     7  Mn    c     0.618499    0.751252    0.420193    0.000000
     8  Mn    c     0.331792    0.267626    0.584527    0.000000
     9  Mn    c     0.617055    0.247433    0.418641    0.000000
    10  Mn    c     0.838501    0.991183    0.249889    0.000000
    11  Mn    c     0.114997    0.011333    0.419853    0.000000
    12  Mn    c     0.615161    0.252916    0.750009    0.000000
    13  Mn    c     0.832884    0.495979    0.915811    0.000000
    14  Mn    c     0.616829    0.746574    0.750933    0.000000
    15  Mn    c     0.332363    0.265812    0.916273    0.000000
    16  Mn    c     0.115575    0.513470    0.417125    0.000000
    17  Mn    c     0.833480    0.499393    0.253292    0.000000
    18  Mn    c     0.334645    0.762607    0.584667    0.000000
    19  Mn    c     0.329037    0.249017    0.252117    0.000000
    20  Mn    c     0.117527    0.009029    0.083843    0.000000
    21  Mn    c     0.331764    0.767553    0.251719    0.000000
    22  Mn    c     0.117861    0.013546    0.750805    0.000000
    23  Mn    c     0.115252    0.510949    0.085458    0.000000
    24  Mn    c     0.833644    0.499004    0.584293    0.000000
    25  Li    c     0.485277    0.486736    0.239457    0.000000
    26  O     c     0.021739    0.102860    0.250985    0.000000
    27  O     c     0.413301    0.353738    0.088731    0.000000
    28  O     c     0.516442    0.151521    0.259392    0.000000
    29  O     c     0.924996    0.403846    0.085561    0.000000
    30  O     c     0.248566    0.155814    0.082510    0.000000
    31  O     c     0.205261    0.414058    0.252424    0.000000
    32  O     c     0.749069    0.080794    0.084449    0.000000
    33  O     c     0.689091    0.363539    0.264000    0.000000
    34  O     c     0.018966    0.607559    0.249791    0.000000
    35  O     c     0.431432    0.856243    0.085061    0.000000
    36  O     c     0.520987    0.663842    0.252394    0.000000
    37  O     c     0.937909    0.894985    0.084287    0.000000
    38  O     c     0.252014    0.659796    0.086400    0.000000
    39  O     c     0.202356    0.913662    0.253479    0.000000
    40  O     c     0.739804    0.592749    0.085427    0.000000
    41  O     c     0.703523    0.845066    0.251551    0.000000
    42  O     c     0.020717    0.106608    0.585182    0.000000
    43  O     c     0.422634    0.355462    0.413889    0.000000
    44  O     c     0.517321    0.159434    0.584817    0.000000
    45  O     c     0.930365    0.406055    0.418795    0.000000
    46  O     c     0.242806    0.161738    0.422255    0.000000
    47  O     c     0.200463    0.414907    0.583938    0.000000
    48  O     c     0.749827    0.097912    0.415012    0.000000
    49  O     c     0.704233    0.348223    0.583206    0.000000
    50  O     c     0.021655    0.608828    0.583364    0.000000
    51  O     c     0.431313    0.856661    0.418053    0.000000
    52  O     c     0.520840    0.654464    0.583488    0.000000
    53  O     c     0.928916    0.902658    0.421870    0.000000
    54  O     c     0.251193    0.661509    0.416431    0.000000
    55  O     c     0.204394    0.912514    0.584585    0.000000
    56  O     c     0.748548    0.602215    0.419330    0.000000
    57  O     c     0.701071    0.851190    0.586040    0.000000
    58  O     c     0.021520    0.104041    0.918350    0.000000
    59  O     c     0.425399    0.362765    0.749895    0.000000
    60  O     c     0.512051    0.157206    0.908645    0.000000
    61  O     c     0.931762    0.406735    0.749007    0.000000
    62  O     c     0.244340    0.165690    0.749907    0.000000
    63  O     c     0.197569    0.412070    0.917028    0.000000
    64  O     c     0.744908    0.096419    0.753921    0.000000
    65  O     c     0.701511    0.353230    0.905955    0.000000
    66  O     c     0.019099    0.605334    0.920363    0.000000
    67  O     c     0.430818    0.854962    0.751368    0.000000
    68  O     c     0.520932    0.654679    0.918862    0.000000
    69  O     c     0.932127    0.903151    0.747943    0.000000
    70  O     c     0.247835    0.663197    0.751650    0.000000
    71  O     c     0.204892    0.911550    0.916558    0.000000
    72  O     c     0.751553    0.601996    0.749828    0.000000
    73  O     c     0.705902    0.844041    0.916685    0.000000
    74  Tc    s     0.620347    0.236931    0.082556    0.000000
    75  O     s     0.026622    0.071097    0.251779    0.000000
    76  O     s     0.404516    0.329901    0.090450    0.000000
    77  O     s     0.517636    0.180872    0.262537    0.000000
    78  O     s     0.919430    0.434259    0.085644    0.000000
    79  O     s     0.247342    0.156510    0.087453    0.000000
    80  O     s     0.198439    0.419011    0.252650    0.000000
    81  O     s     0.758541    0.074795    0.084576    0.000000
    82  O     s     0.693676    0.362460    0.271522    0.000000
    83  O     s     0.023490    0.575848    0.249841    0.000000
    84  O     s     0.426233    0.825019    0.086074    0.000000
    85  O     s     0.524602    0.681836    0.251416    0.000000
    86  O     s     0.934197    0.926572    0.084626    0.000000
    87  O     s     0.252959    0.663773    0.086451    0.000000
    88  O     s     0.202919    0.913046    0.253062    0.000000
    89  O     s     0.742580    0.594116    0.086764    0.000000
    90  O     s     0.701594    0.842363    0.251751    0.000000
    91  O     s     0.025909    0.074400    0.584850    0.000000
    92  O     s     0.417480    0.329661    0.413561    0.000000
    93  O     s     0.523332    0.191334    0.583665    0.000000
    94  O     s     0.925683    0.438367    0.418781    0.000000
    95  O     s     0.245497    0.162832    0.417980    0.000000
    96  O     s     0.200084    0.416238    0.583374    0.000000
    97  O     s     0.750271    0.096320    0.417586    0.000000
    98  O     s     0.701481    0.346482    0.583804    0.000000
    99  O     s     0.027603    0.577575    0.583370    0.000000
   100  O     s     0.426301    0.825120    0.417187    0.000000
   101  O     s     0.525894    0.686121    0.583719    0.000000
   102  O     s     0.924188    0.934408    0.419290    0.000000
   103  O     s     0.252137    0.665132    0.416112    0.000000
   104  O     s     0.202449    0.914212    0.584048    0.000000
   105  O     s     0.748564    0.600509    0.419464    0.000000
   106  O     s     0.699588    0.847773    0.584356    0.000000
   107  O     s     0.027112    0.071817    0.917840    0.000000
   108  O     s     0.418818    0.331579    0.748948    0.000000
   109  O     s     0.515096    0.187675    0.907262    0.000000
   110  O     s     0.927207    0.439224    0.748806    0.000000
   111  O     s     0.245902    0.166432    0.750082    0.000000
   112  O     s     0.197371    0.414896    0.917318    0.000000
   113  O     s     0.749104    0.093662    0.750644    0.000000
   114  O     s     0.704802    0.353892    0.897657    0.000000
   115  O     s     0.024626    0.574111    0.920322    0.000000
   116  O     s     0.425493    0.823045    0.751201    0.000000
   117  O     s     0.525749    0.686027    0.919134    0.000000
   118  O     s     0.926201    0.934810    0.750347    0.000000
   119  O     s     0.249181    0.665016    0.751803    0.000000
   120  O     s     0.203832    0.912465    0.917599    0.000000
   121  O     s     0.750110    0.599623    0.749009    0.000000
   122  O     s     0.703585    0.842038    0.917986    0.000000
--------------------------------------------------------------------------------

  Final internal derivatives :

--------------------------------------------------------------------------------
   No.  Atomic          a             b             c           Radius
        Label          (eV)          (eV)          (eV)        (eV/Angs)
--------------------------------------------------------------------------------
      1 Tc    c       0.000000     -0.000000     -0.000000      0.000000
      2 Mn    c       0.000000     -0.000000     -0.000000      0.000000
      3 Mn    c      -0.000000     -0.000000     -0.000000      0.000000
      4 Mn    c       0.000000     -0.000000     -0.000000      0.000000
      5 Mn    c      -0.000000      0.000000      0.000000      0.000000
      6 Mn    c       0.000000     -0.000000     -0.000000      0.000000
      7 Mn    c       0.000000      0.000000      0.000000      0.000000
      8 Mn    c       0.000000      0.000000     -0.000000      0.000000
      9 Mn    c      -0.000000      0.000000      0.000000      0.000000
     10 Mn    c       0.000000     -0.000000     -0.000000      0.000000
     11 Mn    c       0.000000      0.000000     -0.000000      0.000000
     12 Mn    c      -0.000000      0.000000      0.000000      0.000000
     13 Mn    c      -0.000000     -0.000000      0.000000      0.000000
     14 Mn    c      -0.000000     -0.000000      0.000000      0.000000
     15 Mn    c       0.000000     -0.000000     -0.000000      0.000000
     16 Mn    c       0.000000     -0.000000      0.000000      0.000000
     17 Mn    c       0.000000     -0.000000     -0.000000      0.000000
     18 Mn    c      -0.000000     -0.000000      0.000000      0.000000
     19 Mn    c      -0.000000     -0.000000      0.000000      0.000000
     20 Mn    c      -0.000000      0.000000     -0.000000      0.000000
     21 Mn    c      -0.000000      0.000000      0.000000      0.000000
     22 Mn    c       0.000000      0.000000      0.000000      0.000000
     23 Mn    c      -0.000000      0.000000     -0.000000      0.000000
     24 Mn    c       0.000000     -0.000000      0.000000      0.000000
     25 Li    c      -0.000000     -0.000000      0.000000      0.000000
     26 O     c       0.000000     -0.000000     -0.000000      0.000000
     27 O     c       0.000000     -0.000000     -0.000000      0.000000
     28 O     c       0.000000      0.000000     -0.000000      0.000000
     29 O     c      -0.000000      0.000000     -0.000000      0.000000
     30 O     c      -0.000000     -0.000000     -0.000000      0.000000
     31 O     c      -0.000000     -0.000000      0.000000      0.000000
     32 O     c      -0.000000      0.000000     -0.000000      0.000000
     33 O     c       0.000000     -0.000000      0.000000      0.000000
     34 O     c       0.000000     -0.000000      0.000000      0.000000
     35 O     c       0.000000     -0.000000     -0.000000      0.000000
     36 O     c       0.000000      0.000000      0.000000      0.000000
     37 O     c      -0.000000      0.000000     -0.000000      0.000000
     38 O     c       0.000000      0.000000     -0.000000      0.000000
     39 O     c      -0.000000     -0.000000      0.000000      0.000000
     40 O     c      -0.000000     -0.000000     -0.000000      0.000000
     41 O     c       0.000000      0.000000     -0.000000      0.000000
     42 O     c       0.000000     -0.000000      0.000000      0.000000
     43 O     c       0.000000      0.000000     -0.000000      0.000000
     44 O     c      -0.000000      0.000000      0.000000      0.000000
     45 O     c       0.000000      0.000000      0.000000      0.000000
     46 O     c      -0.000000     -0.000000     -0.000000      0.000000
     47 O     c       0.000000      0.000000     -0.000000      0.000000
     48 O     c       0.000000      0.000000      0.000000      0.000000
     49 O     c      -0.000000     -0.000000     -0.000000      0.000000
     50 O     c       0.000000     -0.000000     -0.000000      0.000000
     51 O     c      -0.000000     -0.000000      0.000000      0.000000
     52 O     c       0.000000      0.000000      0.000000      0.000000
     53 O     c      -0.000000      0.000000     -0.000000      0.000000
     54 O     c       0.000000     -0.000000      0.000000      0.000000
     55 O     c      -0.000000     -0.000000     -0.000000      0.000000
     56 O     c       0.000000     -0.000000      0.000000      0.000000
     57 O     c      -0.000000      0.000000      0.000000      0.000000
     58 O     c       0.000000     -0.000000     -0.000000      0.000000
     59 O     c       0.000000     -0.000000     -0.000000      0.000000
     60 O     c       0.000000      0.000000     -0.000000      0.000000
     61 O     c      -0.000000      0.000000     -0.000000      0.000000
     62 O     c       0.000000     -0.000000     -0.000000      0.000000
     63 O     c      -0.000000      0.000000     -0.000000      0.000000
     64 O     c       0.000000      0.000000     -0.000000      0.000000
     65 O     c      -0.000000      0.000000      0.000000      0.000000
     66 O     c       0.000000     -0.000000      0.000000      0.000000
     67 O     c      -0.000000     -0.000000      0.000000      0.000000
     68 O     c      -0.000000     -0.000000      0.000000      0.000000
     69 O     c      -0.000000      0.000000      0.000000      0.000000
     70 O     c       0.000000      0.000000     -0.000000      0.000000
     71 O     c      -0.000000      0.000000      0.000000      0.000000
     72 O     c       0.000000     -0.000000      0.000000      0.000000
     73 O     c       0.000000      0.000000      0.000000      0.000000
     74 Tc    s       0.000000      0.000000     -0.000000      0.000000
     75 O     s       0.000000      0.000000      0.000000      0.000000
     76 O     s      -0.000000      0.000000      0.000000      0.000000
     77 O     s      -0.000000      0.000000     -0.000000      0.000000
     78 O     s      -0.000000     -0.000000      0.000000      0.000000
     79 O     s       0.000000      0.000000      0.000000      0.000000
     80 O     s       0.000000      0.000000     -0.000000      0.000000
     81 O     s       0.000000      0.000000      0.000000      0.000000
     82 O     s      -0.000000      0.000000     -0.000000      0.000000
     83 O     s       0.000000      0.000000     -0.000000      0.000000
     84 O     s      -0.000000      0.000000      0.000000      0.000000
     85 O     s       0.000000     -0.000000     -0.000000      0.000000
     86 O     s      -0.000000     -0.000000      0.000000      0.000000
     87 O     s      -0.000000     -0.000000      0.000000      0.000000
     88 O     s       0.000000     -0.000000      0.000000      0.000000
     89 O     s       0.000000      0.000000      0.000000      0.000000
     90 O     s      -0.000000     -0.000000      0.000000      0.000000
     91 O     s      -0.000000      0.000000     -0.000000      0.000000
     92 O     s      -0.000000     -0.000000     -0.000000      0.000000
     93 O     s       0.000000     -0.000000     -0.000000      0.000000
     94 O     s      -0.000000     -0.000000     -0.000000      0.000000
     95 O     s       0.000000     -0.000000     -0.000000      0.000000
     96 O     s      -0.000000     -0.000000      0.000000      0.000000
     97 O     s      -0.000000      0.000000     -0.000000      0.000000
     98 O     s       0.000000     -0.000000     -0.000000      0.000000
     99 O     s      -0.000000      0.000000     -0.000000      0.000000
    100 O     s       0.000000      0.000000     -0.000000      0.000000
    101 O     s       0.000000      0.000000     -0.000000      0.000000
    102 O     s       0.000000     -0.000000      0.000000      0.000000
    103 O     s      -0.000000      0.000000     -0.000000      0.000000
    104 O     s      -0.000000      0.000000     -0.000000      0.000000
    105 O     s      -0.000000     -0.000000     -0.000000      0.000000
    106 O     s       0.000000      0.000000     -0.000000      0.000000
    107 O     s       0.000000      0.000000     -0.000000      0.000000
    108 O     s      -0.000000      0.000000      0.000000      0.000000
    109 O     s       0.000000     -0.000000      0.000000      0.000000
    110 O     s       0.000000     -0.000000      0.000000      0.000000
    111 O     s      -0.000000     -0.000000      0.000000      0.000000
    112 O     s      -0.000000     -0.000000      0.000000      0.000000
    113 O     s      -0.000000      0.000000     -0.000000      0.000000
    114 O     s       0.000000     -0.000000     -0.000000      0.000000
    115 O     s       0.000000      0.000000      0.000000      0.000000
    116 O     s       0.000000      0.000000     -0.000000      0.000000
    117 O     s       0.000000      0.000000     -0.000000      0.000000
    118 O     s       0.000000     -0.000000     -0.000000      0.000000
    119 O     s      -0.000000      0.000000      0.000000      0.000000
    120 O     s       0.000000      0.000000      0.000000      0.000000
    121 O     s       0.000000      0.000000     -0.000000      0.000000
    122 O     s      -0.000000     -0.000000      0.000000      0.000000
--------------------------------------------------------------------------------
  Maximum abs         0.000000      0.000000      0.000000      0.000000
--------------------------------------------------------------------------------


  Born effective charge tensors : 

-------------------------------------------------------------------------------
  Atom             x           y             z
-------------------------------------------------------------------------------
    1 Tc    x       3.3303     -0.2498     -0.0993
            y      -0.4930      2.4067      0.0208
            z      -0.1363      0.0008      3.7277
-------------------------------------------------------------------------------
    2 Mn    x       2.2507      0.5950      0.8993
            y       0.6070      1.6318     -0.9722
            z       0.6061     -0.6809      2.1583
-------------------------------------------------------------------------------
    3 Mn    x       2.3375     -0.5807     -0.1646
            y      -0.4166      1.5622     -0.1077
            z      -0.1431     -0.1540      2.0085
-------------------------------------------------------------------------------
    4 Mn    x       2.2653     -0.4655      0.0922
            y      -0.4666      1.6651     -0.0210
            z       0.1028      0.0005      2.2852
-------------------------------------------------------------------------------
    5 Mn    x       2.3429      0.8077      0.0577
            y       0.8210      1.6143     -0.0037
            z       0.0320     -0.0797      2.0080
-------------------------------------------------------------------------------
    6 Mn    x       2.1437      0.2711     -0.0561
            y       0.3514      1.8515      0.0495
            z      -0.0399      0.0484      2.3265
-------------------------------------------------------------------------------
    7 Mn    x       2.2227     -0.5209      0.3115
            y      -0.5001      1.5174      0.1445
            z       0.2301      0.1964      2.0909
-------------------------------------------------------------------------------
    8 Mn    x       2.2277     -0.2092     -0.1561
            y      -0.2151      1.8236     -0.0729
            z      -0.1357     -0.0854      2.5066
-------------------------------------------------------------------------------
    9 Mn    x       2.9235     -0.9249      0.4278
            y      -0.9612      1.9207      0.1083
            z       0.3460      0.2143      1.0023
-------------------------------------------------------------------------------
   10 Mn    x       2.2953      0.6629     -0.8350
            y       0.7170      1.7408      0.8856
            z      -0.6123      0.7344      2.0581
-------------------------------------------------------------------------------
   11 Mn    x       2.4340      0.5245      0.0042
            y       0.4228      1.8012     -0.1876
            z      -0.0487      0.0262      2.1666
-------------------------------------------------------------------------------
   12 Mn    x       3.0605     -1.1742     -0.3467
            y      -1.1086      2.1224     -0.1642
            z      -0.2085     -0.3253      1.1037
-------------------------------------------------------------------------------
   13 Mn    x       2.2574     -0.2182      0.0601
            y      -0.0572      1.3363      0.2292
            z       0.0611      0.2789      2.7811
-------------------------------------------------------------------------------
   14 Mn    x       2.3858     -0.3397     -0.1348
            y      -0.3522      1.7307     -0.0670
            z      -0.0643     -0.0545      2.3535
-------------------------------------------------------------------------------
   15 Mn    x       1.6188      0.0170     -0.3928
            y      -0.0739      1.9897     -0.1502
            z      -0.2836     -0.1888      2.5783
-------------------------------------------------------------------------------
   16 Mn    x       2.2668      0.6840      0.0087
            y       0.6769      1.7218     -0.1148
            z       0.1247     -0.2107      2.0092
-------------------------------------------------------------------------------
   17 Mn    x       2.1411      0.2032     -0.2257
            y       0.1476      1.2281     -0.1400
            z      -0.1329     -0.1852      2.2051
-------------------------------------------------------------------------------
   18 Mn    x       2.4594     -0.5389     -0.1152
            y      -0.5254      1.8306     -0.0296
            z      -0.1128     -0.0483      2.3939
-------------------------------------------------------------------------------
   19 Mn    x       1.6467     -1.0486      0.5343
            y      -0.9103      1.9287      0.1844
            z       0.4024      0.2377      1.3732
-------------------------------------------------------------------------------
   20 Mn    x       1.8980      0.0220     -0.0091
            y       0.2349      1.5806      0.2309
            z      -0.0120      0.0393      2.1413
-------------------------------------------------------------------------------
   21 Mn    x       2.2486     -0.5058      0.0331
            y      -0.5307      1.4126      0.0590
            z       0.0013      0.0402      1.8489
-------------------------------------------------------------------------------
   22 Mn    x       2.5614      0.4636      0.0118
            y       0.3689      1.8923     -0.0427
            z       0.0957     -0.0203      2.3542
-------------------------------------------------------------------------------
   23 Mn    x       2.7625      0.9921      0.0432
            y       0.7687      1.8466      0.0588
            z      -0.0983      0.1522      2.0276
-------------------------------------------------------------------------------
   24 Mn    x       2.8331      0.7367      0.0687
            y       0.7672      1.9884     -0.0336
            z       0.0280     -0.0197      2.2750
-------------------------------------------------------------------------------
   25 Li    x       1.1595      0.1772      0.0580
            y       0.0360      1.4313     -0.0467
            z       0.0600     -0.1008      0.9492
-------------------------------------------------------------------------------
   26 O     x      -1.3061     -0.2100      0.0423
            y      -0.0747     -0.6214     -0.0154
            z       0.0336     -0.0296     -0.6843
-------------------------------------------------------------------------------
   27 O     x      -1.3841      0.1789     -0.0609
            y       0.1727     -0.8906     -0.1056
            z      -0.0364     -0.0740     -0.7156
-------------------------------------------------------------------------------
   28 O     x      -1.2799      0.1596      0.0789
            y       0.0265     -0.7275      0.0677
            z       0.0856      0.0817     -0.8491
-------------------------------------------------------------------------------
   29 O     x      -1.5533     -0.2185     -0.0024
            y       0.0449     -0.5813      0.0186
            z       0.0255     -0.0104     -0.6743
-------------------------------------------------------------------------------
   30 O     x      -0.8789     -0.3278      0.1484
            y      -0.3166     -1.0860      0.1901
            z       0.0954      0.1828     -1.5878
-------------------------------------------------------------------------------
   31 O     x      -1.1793      0.5686     -0.0703
            y       0.4552     -1.4038      0.0378
            z      -0.0453      0.0354     -1.3593
-------------------------------------------------------------------------------
   32 O     x      -0.9368      0.1543      0.0144
            y       0.0862     -0.9372     -0.0108
            z      -0.0024     -0.0065     -1.2167
-------------------------------------------------------------------------------
   33 O     x      -1.1428     -0.2246     -0.0221
            y      -0.2275     -1.1305      0.0432
            z      -0.0242      0.0126     -1.2932
-------------------------------------------------------------------------------
   34 O     x      -1.4317     -0.1651     -0.0276
            y       0.0697     -0.6205      0.0215
            z      -0.0318      0.0102     -0.6884
-------------------------------------------------------------------------------
   35 O     x      -1.4214      0.2140     -0.0703
            y      -0.0106     -0.6396      0.0169
            z      -0.0658      0.0114     -0.7066
-------------------------------------------------------------------------------
   36 O     x      -1.5333      0.1879     -0.0167
            y       0.0085     -0.7110     -0.0163
            z      -0.0173     -0.0207     -0.8457
-------------------------------------------------------------------------------
   37 O     x      -1.1959     -0.1798     -0.0170
            y      -0.0590     -0.5531     -0.0061
            z      -0.0214      0.0041     -0.8106
-------------------------------------------------------------------------------
   38 O     x      -1.1038     -0.5014     -0.0613
            y      -0.4206     -1.3064      0.0244
            z      -0.0316      0.0062     -1.5851
-------------------------------------------------------------------------------
   39 O     x      -0.8902      0.2696      0.0168
            y       0.2490     -1.0327     -0.0254
            z       0.0324     -0.0211     -1.6017
-------------------------------------------------------------------------------
   40 O     x      -1.1235      0.5397      0.1319
            y       0.3886     -1.1456     -0.0295
            z       0.0926     -0.0355     -1.7208
-------------------------------------------------------------------------------
   41 O     x      -1.0385     -0.4151     -0.0035
            y      -0.3916     -1.1083     -0.0362
            z      -0.0031     -0.0471     -1.3998
-------------------------------------------------------------------------------
   42 O     x      -1.3594     -0.2005     -0.0196
            y      -0.0112     -0.6122      0.0040
            z      -0.0291     -0.0048     -0.5980
-------------------------------------------------------------------------------
   43 O     x      -1.6353      0.2144     -0.0765
            y       0.0816     -0.7504      0.0959
            z      -0.0622      0.0348     -0.7635
-------------------------------------------------------------------------------
   44 O     x      -1.4761      0.2854     -0.0629
            y       0.0677     -0.6642      0.0186
            z      -0.0807      0.0048     -0.6476
-------------------------------------------------------------------------------
   45 O     x      -1.2852     -0.1811      0.0118
            y       0.0115     -0.5865     -0.0026
            z       0.0068      0.0219     -0.6175
-------------------------------------------------------------------------------
   46 O     x      -0.9644     -0.4444     -0.1702
            y      -0.3547     -1.1528     -0.1593
            z      -0.1172     -0.1935     -1.4345
-------------------------------------------------------------------------------
   47 O     x      -0.9658      0.3859      0.0469
            y       0.3302     -1.1357     -0.0135
            z       0.0312     -0.0291     -1.5188
-------------------------------------------------------------------------------
   48 O     x      -1.0907      0.5350      0.0716
            y       0.4430     -1.3148     -0.0878
            z       0.0924     -0.1364     -1.5824
-------------------------------------------------------------------------------
   49 O     x      -1.0566     -0.4505     -0.0228
            y      -0.3586     -1.2375     -0.0068
            z      -0.0317     -0.0392     -1.3788
-------------------------------------------------------------------------------
   50 O     x      -1.5049     -0.2304     -0.0155
            y      -0.0380     -0.6222      0.0011
            z       0.0041      0.0041     -0.6387
-------------------------------------------------------------------------------
   51 O     x      -1.3787      0.2077      0.0715
            y       0.0062     -0.6289     -0.0219
            z       0.0611     -0.0191     -0.7025
-------------------------------------------------------------------------------
   52 O     x      -1.3574      0.1821     -0.0064
            y      -0.0051     -0.6216     -0.0209
            z       0.0029     -0.0087     -0.6883
-------------------------------------------------------------------------------
   53 O     x      -1.4353     -0.1833      0.0528
            y      -0.0012     -0.6513     -0.0152
            z       0.1147     -0.0501     -0.6636
-------------------------------------------------------------------------------
   54 O     x      -1.0746     -0.4521      0.0453
            y      -0.3781     -1.2286     -0.0397
            z       0.0132     -0.0173     -1.5391
-------------------------------------------------------------------------------
   55 O     x      -1.0308      0.4759      0.0341
            y       0.4028     -1.1903     -0.0392
            z       0.0135     -0.0529     -1.5415
-------------------------------------------------------------------------------
   56 O     x      -1.0741      0.4137     -0.0376
            y       0.3716     -1.1337     -0.0034
            z      -0.0419      0.0257     -1.5748
-------------------------------------------------------------------------------
   57 O     x      -1.0298     -0.4603      0.0682
            y      -0.4019     -1.1961      0.0720
            z       0.0452      0.0781     -1.4464
-------------------------------------------------------------------------------
   58 O     x      -1.3028     -0.1771     -0.0285
            y      -0.0012     -0.6048      0.0147
            z      -0.0116      0.0298     -0.6400
-------------------------------------------------------------------------------
   59 O     x      -1.4878      0.2353      0.1132
            y       0.0743     -0.6554      0.0003
            z       0.0754      0.0394     -0.6141
-------------------------------------------------------------------------------
   60 O     x      -1.2131      0.1397     -0.0402
            y       0.0222     -0.6702     -0.0748
            z      -0.0262     -0.0796     -0.8744
-------------------------------------------------------------------------------
   61 O     x      -1.2016     -0.1553     -0.0058
            y       0.0297     -0.5911     -0.0180
            z      -0.0171     -0.0197     -0.6399
-------------------------------------------------------------------------------
   62 O     x      -0.9748     -0.4711      0.0238
            y      -0.3816     -1.2240      0.0067
            z       0.0251      0.0269     -1.6062
-------------------------------------------------------------------------------
   63 O     x      -0.9896      0.4150      0.0173
            y       0.3616     -1.1829     -0.0171
            z       0.0149      0.0058     -1.5137
-------------------------------------------------------------------------------
   64 O     x      -1.1799      0.6642     -0.1744
            y       0.5368     -1.4208      0.1807
            z      -0.1356      0.2089     -1.5383
-------------------------------------------------------------------------------
   65 O     x      -0.9451     -0.1815      0.0708
            y      -0.1709     -1.0168      0.0190
            z       0.0586      0.0793     -1.3007
-------------------------------------------------------------------------------
   66 O     x      -1.4572     -0.2052      0.0433
            y       0.0057     -0.6152     -0.0210
            z       0.0302     -0.0102     -0.6836
-------------------------------------------------------------------------------
   67 O     x      -1.3802      0.1948      0.0015
            y       0.0091     -0.6073      0.0038
            z       0.0083      0.0082     -0.6702
-------------------------------------------------------------------------------
   68 O     x      -1.3385      0.1954      0.0215
            y      -0.0144     -0.6001      0.0293
            z       0.0198      0.0293     -0.7047
-------------------------------------------------------------------------------
   69 O     x      -1.4686     -0.1892     -0.0463
            y       0.0479     -0.6402      0.0219
            z      -0.1167      0.0540     -0.6337
-------------------------------------------------------------------------------
   70 O     x      -1.0332     -0.4429      0.0024
            y      -0.3661     -1.1633      0.0083
            z       0.0160      0.0175     -1.5692
-------------------------------------------------------------------------------
   71 O     x      -1.0045      0.4615     -0.0599
            y       0.3793     -1.1626      0.0769
            z      -0.0530      0.0819     -1.6240
-------------------------------------------------------------------------------
   72 O     x      -0.9990      0.3869     -0.0358
            y       0.3460     -1.1155      0.0084
            z      -0.0201      0.0053     -1.6080
-------------------------------------------------------------------------------
   73 O     x      -0.9792     -0.3790     -0.0493
            y      -0.3533     -1.0831     -0.0126
            z      -0.0377     -0.0104     -1.4373
-------------------------------------------------------------------------------




  Elastic Constant Matrix: (Units=GPa)

-------------------------------------------------------------------------------
  Indices      1         2         3         4         5         6    
-------------------------------------------------------------------------------
       1    440.1969  177.9607  259.6076    1.2775    1.4502   11.8473
       2    177.9607  271.8107  163.1570    1.2329    1.0228    7.3604
       3    259.6076  163.1570  846.0526    1.5757    3.2005    3.2803
       4      1.2775    1.2329    1.5757   88.0841    4.3794    0.2167
       5      1.4502    1.0228    3.2005    4.3794  168.4753    0.3424
       6     11.8473    7.3604    3.2803    0.2167    0.3424  115.8632
-------------------------------------------------------------------------------


  Elastic Compliance Matrix: (Units=1/GPa)

-------------------------------------------------------------------------------
  Indices      1         2         3         4         5         6    
-------------------------------------------------------------------------------
       1    0.003424 -0.001816 -0.000700 -0.000011 -0.000004 -0.000215
       2   -0.001816  0.005131 -0.000432 -0.000037 -0.000006 -0.000128
       3   -0.000700 -0.000432  0.001480 -0.000009 -0.000019  0.000057
       4   -0.000011 -0.000037 -0.000009  0.011368 -0.000295 -0.000017
       5   -0.000004 -0.000006 -0.000019 -0.000295  0.005944 -0.000016
       6   -0.000215 -0.000128  0.000057 -0.000017 -0.000016  0.008659
-------------------------------------------------------------------------------

  Mechanical properties :

-------------------------------------------------------------------------------
  Convention :                    Reuss         Voigt         Hill
-------------------------------------------------------------------------------
  Bulk  Modulus (GPa)     =     241.53632     306.61231     274.07431
  Shear Modulus (GPa)     =     115.52321     138.30686     126.91503
-------------------------------------------------------------------------------
  Velocity S-wave (km/s)  =       4.83145       5.28646       5.06407
  Velocity P-wave (km/s)  =       8.94032       9.96078       9.46431
-------------------------------------------------------------------------------
  Compressibility (1/GPa) =    0.00414016
-------------------------------------------------------------------------------
  Stress axis :                     x             y             z
-------------------------------------------------------------------------------
  Youngs Moduli (GPa)     =     292.02219     194.89994     675.79325
-------------------------------------------------------------------------------
  Poissons Ratio (x)      =                     0.35397       0.47282
  Poissons Ratio (y)      =       0.53036                     0.29166
  Poissons Ratio (z)      =       0.20431       0.08412
-------------------------------------------------------------------------------


  Piezoelectric Strain Matrix: (Units=C/m**2)

-------------------------------------------------------------------------------
  Indices      1         2         3         4         5         6    
-------------------------------------------------------------------------------
       x     1.12445   0.43256   1.64602  -0.01234  -0.20129  -1.00056
       y    -1.22184  -0.70087   1.66487   0.03931  -0.06091   0.38333
       z    -0.00280   0.14511   0.02282  -0.18932   1.74490   0.02491
-------------------------------------------------------------------------------


  Piezoelectric Stress Matrix: (Units=10**-11 C/N)

-------------------------------------------------------------------------------
  Indices      1         2         3         4         5         6    
-------------------------------------------------------------------------------
       x     0.21294  -0.04035   0.14091  -0.01082  -0.12166  -0.88639
       y    -0.41585  -0.21456   0.36436   0.04821  -0.04021   0.37671
       z    -0.03001   0.07330  -0.00574  -0.26729   1.04254   0.01749
-------------------------------------------------------------------------------


  Static dielectric constant tensor : 

-------------------------------------------------------------------------------
              x         y         z
-------------------------------------------------------------------------------
       x     7.93261  -0.25407  -0.00391
       y    -0.25407   5.86284  -0.05444
       z    -0.00391  -0.05444   6.71268
--------------------------------------------------------------------------------

  High frequency dielectric constant tensor : 

-------------------------------------------------------------------------------
              x         y         z
-------------------------------------------------------------------------------
       x     4.62369  -0.03329   0.00239
       y    -0.03329   3.83790  -0.00740
       z     0.00239  -0.00740   4.20288
-------------------------------------------------------------------------------

  Static refractive indices : 

-------------------------------------------------------------------------------
    1 =    2.41428      2 =    2.59153      3 =    2.82194
-------------------------------------------------------------------------------

  High frequency refractive indices : 

-------------------------------------------------------------------------------
    1 =    1.95866      2 =    2.05012      3 =    2.15061
-------------------------------------------------------------------------------


  Phonon Calculation : 

  Number of k points for this configuration =        1

--------------------------------------------------------------------------------
  K point      1 =   0.000000  0.000000  0.000000  Weight =    1.000
--------------------------------------------------------------------------------

  Frequencies (cm-1) [NB: Negative implies an imaginary mode]:

   -0.00   -0.00    0.00   78.50  103.86  121.16  129.36  132.59  146.51
  153.25  155.55  160.44  162.85  163.61  164.48  167.24  167.41  173.51
  175.91  176.58  179.37  180.18  181.64  183.31  183.79  184.90  186.40
  187.87  192.04  195.24  196.23  196.92  200.22  200.87  202.19  202.98
  204.18  205.58  210.67  211.87  214.66  217.95  220.24  221.63  223.71
  226.41  231.39  233.21  241.56  243.73  250.67  252.17  255.38  259.70
  264.25  266.81  272.64  281.42  283.18  286.41  287.43  291.06  291.89
  295.28  298.43  301.97  307.64  309.23  312.87  320.96  325.20  327.84
  332.05  340.15  342.63  345.44  349.91  352.62  356.42  358.01  360.63
  365.35  367.47  371.80  375.73  378.15  380.66  381.89  384.98  386.99
  395.09  399.83  401.65  404.85  410.89  413.17  415.43  418.34  420.38
  422.62  423.80  426.55  428.61  430.27  432.17  433.81  436.07  438.60
  439.44  440.01  442.60  444.39  445.70  447.15  448.13  449.25  450.15
  451.70  454.13  455.17  459.90  462.88  464.04  466.58  467.73  469.15
  469.78  471.34  472.65  475.47  477.01  478.34  481.23  481.61  482.66
  484.49  486.34  486.80  488.16  489.00  493.50  494.77  496.42  497.84
  499.58  506.02  513.23  518.67  537.94  539.80  544.60  547.33  548.02
  550.62  551.60  552.99  554.89  556.32  557.11  559.42  561.02  562.08
  563.32  564.67  567.44  568.51  571.28  572.67  574.70  574.95  578.52
  578.99  580.40  580.84  584.44  586.85  587.83  588.63  589.58  592.07
  594.28  595.30  596.59  598.05  599.69  603.00  604.66  609.85  612.09
  614.30  615.26  617.00  618.97  622.44  623.66  625.64  630.98  633.81
  642.80  650.86  663.90  670.46  676.89  678.38  682.57  688.50  690.15
  694.62  697.55  698.86  702.96  704.21  709.18  710.44  711.47  715.19
  722.66  724.37  734.99


--------------------------------------------------------------------------------
  Phonon properties (per mole of unit cells): Temperature =      0.000 K
--------------------------------------------------------------------------------
  Zero point energy             =        5.687083 eV
--------------------------------------------------------------------------------

  Phonon density of states : 

--------------------------------------------------------------------------------
 Frequency (cm-1) Density of States                                             
--------------------------------------------------------------------------------
    0.00000 |******                                                        0.005
   11.48425 |                                                              0.000
   22.96849 |                                                              0.000
   34.45274 |                                                              0.000
   45.93698 |                                                              0.000
   57.42123 |                                                              0.000
   68.90547 |******                                                        0.005
   80.38972 |                                                              0.000
   91.87396 |                                                              0.000
  103.35821 |******                                                        0.005
  114.84246 |******                                                        0.005
  126.32670 |*************                                                 0.009
  137.81095 |******                                                        0.005
  149.29519 |********************                                          0.014
  160.77944 |*********************************                             0.023
  172.26368 |**********************************************                0.032
  183.74793 |*********************************                             0.023
  195.23217 |************************************************************  0.041
  206.71642 |**************************                                    0.018
  218.20067 |**************************                                    0.018
  229.68491 |*************                                                 0.009
  241.16916 |**************************                                    0.018
  252.65340 |*************                                                 0.009
  264.13765 |********************                                          0.014
  275.62189 |********************                                          0.014
  287.10614 |*********************************                             0.023
  298.59038 |********************                                          0.014
  310.07463 |*************                                                 0.009
  321.55888 |********************                                          0.014
  333.04312 |*************                                                 0.009
  344.52737 |********************                                          0.014
  356.01161 |*********************************                             0.023
  367.49586 |********************                                          0.014
  378.98010 |**************************                                    0.018
  390.46435 |********************                                          0.014
  401.94859 |********************                                          0.014
  413.43284 |*********************************                             0.023
  424.91709 |****************************************                      0.028
  436.40133 |**********************************************                0.032
  447.88558 |****************************************                      0.028
  459.36982 |**********************************************                0.032
  470.85407 |**********************************************                0.032
  482.33831 |**********************************************                0.032
  493.82256 |**************************                                    0.018
  505.30681 |*************                                                 0.009
  516.79105 |******                                                        0.005
  528.27530 |******                                                        0.005
  539.75954 |*********************************                             0.023
  551.24379 |*****************************************************         0.037
  562.72803 |****************************************                      0.028
  574.21228 |**********************************************                0.032
  585.69652 |*****************************************************         0.037
  597.18077 |**************************                                    0.018
  608.66502 |****************************************                      0.028
  620.14926 |**************************                                    0.018
  631.63351 |*************                                                 0.009
  643.11775 |******                                                        0.005
  654.60200 |******                                                        0.005
  666.08624 |*************                                                 0.009
  677.57049 |********************                                          0.014
  689.05473 |**************************                                    0.018
  700.53898 |*********************************                             0.023
  712.02323 |*************                                                 0.009
  723.50747 |*************                                                 0.009
--------------------------------------------------------------------------------



  Time to end of optimisation =       0.9205 seconds


  Peak dynamic memory used =       2.35 MB 


  Timing analysis for GULP :

--------------------------------------------------------------------------------
  Task / Subroutine                                          Time (Seconds)
--------------------------------------------------------------------------------
  Calculation of reciprocal space energy and derivatives          0.0335
  Calculation of real space energy and derivatives                0.0754
  Calculation of phonons                                          0.1061
  Calculation and manipulation of Hessian matrix                  0.0058
  Calculation of matrix diagonalisation                           0.0714
  Calculation of matrix inversion                                 0.3405
  Global summation overhead                                       0.0724
--------------------------------------------------------------------------------
  Total CPU time                                                  0.9209
--------------------------------------------------------------------------------


  Job Finished at 16:20.59 26th June       2024                               

KLMC_FINALIZE> start: 20240626 162058.734 end: 20240626 162059.730 elapsed_time:   0.99681400 cpu_count:  128 task_id:    1 worker_id:    1 io_path: /mnt/lustre/a2fs-work2/work/e05/e05/wkjee/Software/gulpklmc/klmc3_tf_interface.update.12092023/KLMC3-libgulp-6.1.2-memoryfix/Src/_build_libgulp/sample1                                                                                                         
in gulpklmc.F90 : KLMC klmc_task_iopath: /mnt/lustre/a2fs-work2/work/e05/e05/wkjee/Software/gulpklmc/klmc3_tf_interface.update.12092023/KLMC3-libgulp-6.1.2-memoryfix/Src/_build_libgulp/sample2                                                                                                                                                                                                                                                                                                                                                                         
in gulpklmc.F90 : KLMC gulp_klmc_iopath: /mnt/lustre/a2fs-work2/work/e05/e05/wkjee/Software/gulpklmc/klmc3_tf_interface.update.12092023/KLMC3-libgulp-6.1.2-memoryfix/Src/_build_libgulp/sample2                                                                                                         
