********************************************************************************
*                       GENERAL UTILITY LATTICE PROGRAM                        *
*                                 Julian Gale                                  *
*                       Curtin Institute for Computation                       *
*                    School of Molecular and Life Sciences                     *
*                    Curtin University, Western Australia                      *
********************************************************************************
* Version = 6.1.2 * Last modified =   3rd November 2022                        *
********************************************************************************
*  optimise     - perform optimisation run                                     *
********************************************************************************

  Job Started  at 16:21.02 26th June       2024                               

  Number of CPUs =   128

  Host name      = nid001986                               


  Total number of configurations input =      1

********************************************************************************
*  Input for Configuration =   1 : CeO2                                        *
********************************************************************************

  Formula = La2Ce178O359                                                

  Number of irreducible atoms/shells =    1078


  Total number atoms/shells =    1078

  Dimensionality = 3               :  Bulk   



  Cartesian lattice vectors (Angstroms) :

       19.073999    0.000000    0.000000
        0.000000   19.822500    0.000000
        0.000000    0.000000   18.688801

  Cell parameters (Angstroms/Degrees):

  a =      19.0740    alpha =  90.0000
  b =      19.8225    beta  =  90.0000
  c =      18.6888    gamma =  90.0000

  Initial cell volume =        7066.130137 Angs**3

  Temperature of configuration =   0.00     K 

  Pressure of configuration =         0.000 GPa 

  Fractional coordinates of asymmetric unit :

--------------------------------------------------------------------------------
   No.  Atomic       x           y          z         Charge      Occupancy
        Label      (Frac)      (Frac)     (Frac)        (e)         (Frac)  
--------------------------------------------------------------------------------
      1 La    c    0.200000 *  0.666667 *  0.000000 *  -6.94525    1.000000    
      2 La    c    0.200000 *  0.222223 *  0.333335 *  -6.94525    1.000000    
      3 Ce    c    0.800000 *  0.888890 *  0.833335 *  -9.85000    1.000000    
      4 Ce    c    0.500000 *  0.833333 *  0.000000 *  -9.85000    1.000000    
      5 Ce    c    0.800000 *  0.777777 *  0.166665 *  -9.85000    1.000000    
      6 Ce    c    0.600000 *  0.222223 *  0.833335 *  -9.85000    1.000000    
      7 Ce    c    0.000000 *  0.000000 *  0.000000 *  -9.85000    1.000000    
      8 Ce    c    0.000000 *  0.333333 *  0.000000 *  -9.85000    1.000000    
      9 Ce    c    0.200000 *  0.222223 *  0.833335 *  -9.85000    1.000000    
     10 Ce    c    0.200000 *  0.333333 *  0.000000 *  -9.85000    1.000000    
     11 Ce    c    0.500000 *  0.277777 *  0.666665 *  -9.85000    1.000000    
     12 Ce    c    0.600000 *  0.222223 *  0.333335 *  -9.85000    1.000000    
     13 Ce    c    0.900000 *  0.611110 *  0.166665 *  -9.85000    1.000000    
     14 Ce    c    0.100000 *  0.722223 *  0.833335 *  -9.85000    1.000000    
     15 Ce    c    0.900000 *  0.277777 *  0.166665 *  -9.85000    1.000000    
     16 Ce    c    0.800000 *  0.555557 *  0.333335 *  -9.85000    1.000000    
     17 Ce    c    0.500000 *  0.500000 *  0.500000 *  -9.85000    1.000000    
     18 Ce    c    0.300000 *  0.166667 *  0.000000 *  -9.85000    1.000000    
     19 Ce    c    0.300000 *  0.944443 *  0.166665 *  -9.85000    1.000000    
     20 Ce    c    0.800000 *  0.444443 *  0.666665 *  -9.85000    1.000000    
     21 Ce    c    0.800000 *  0.000000 *  0.500000 *  -9.85000    1.000000    
     22 Ce    c    0.400000 *  0.000000 *  0.500000 *  -9.85000    1.000000    
     23 Ce    c    0.000000 *  0.333333 *  0.500000 *  -9.85000    1.000000    
     24 Ce    c    0.200000 *  0.666667 *  0.500000 *  -9.85000    1.000000    
     25 Ce    c    0.500000 *  0.277777 *  0.166665 *  -9.85000    1.000000    
     26 Ce    c    0.700000 *  0.833333 *  0.000000 *  -9.85000    1.000000    
     27 Ce    c    0.400000 *  0.888890 *  0.833335 *  -9.85000    1.000000    
     28 Ce    c    0.900000 *  0.166667 *  0.500000 *  -9.85000    1.000000    
     29 Ce    c    0.900000 *  0.277777 *  0.666665 *  -9.85000    1.000000    
     30 Ce    c    0.800000 *  0.888890 *  0.333335 *  -9.85000    1.000000    
     31 Ce    c    0.400000 *  0.444443 *  0.666665 *  -9.85000    1.000000    
     32 Ce    c    0.100000 *  0.722223 *  0.333335 *  -9.85000    1.000000    
     33 Ce    c    0.000000 *  0.555557 *  0.333335 *  -9.85000    1.000000    
     34 Ce    c    0.300000 *  0.722223 *  0.833335 *  -9.85000    1.000000    
     35 Ce    c    0.700000 *  0.833333 *  0.500000 *  -9.85000    1.000000    
     36 Ce    c    0.700000 *  0.277777 *  0.166665 *  -9.85000    1.000000    
     37 Ce    c    0.400000 *  0.666667 *  0.500000 *  -9.85000    1.000000    
     38 Ce    c    0.000000 *  0.666667 *  0.500000 *  -9.85000    1.000000    
     39 Ce    c    0.600000 *  0.888890 *  0.333335 *  -9.85000    1.000000    
     40 Ce    c    0.200000 *  0.444443 *  0.666665 *  -9.85000    1.000000    
     41 Ce    c    0.900000 *  0.388890 *  0.333335 *  -9.85000    1.000000    
     42 Ce    c    0.100000 *  0.944443 *  0.666665 *  -9.85000    1.000000    
     43 Ce    c    0.700000 *  0.611110 *  0.666665 *  -9.85000    1.000000    
     44 Ce    c    0.500000 *  0.055557 *  0.333335 *  -9.85000    1.000000    
     45 Ce    c    0.000000 *  0.555557 *  0.833335 *  -9.85000    1.000000    
     46 Ce    c    0.800000 *  0.444443 *  0.166665 *  -9.85000    1.000000    
     47 Ce    c    0.900000 *  0.500000 *  0.000000 *  -9.85000    1.000000    
     48 Ce    c    0.600000 *  0.666667 *  0.500000 *  -9.85000    1.000000    
     49 Ce    c    0.900000 *  0.722223 *  0.333335 *  -9.85000    1.000000    
     50 Ce    c    0.200000 *  0.777777 *  0.166665 *  -9.85000    1.000000    
     51 Ce    c    0.500000 *  0.166667 *  0.500000 *  -9.85000    1.000000    
     52 Ce    c    0.900000 *  0.388890 *  0.833335 *  -9.85000    1.000000    
     53 Ce    c    0.000000 *  0.222223 *  0.833335 *  -9.85000    1.000000    
     54 Ce    c    0.000000 *  0.111110 *  0.166665 *  -9.85000    1.000000    
     55 Ce    c    0.200000 *  0.111110 *  0.166665 *  -9.85000    1.000000    
     56 Ce    c    0.000000 *  0.222223 *  0.333335 *  -9.85000    1.000000    
     57 Ce    c    0.100000 *  0.166667 *  0.000000 *  -9.85000    1.000000    
     58 Ce    c    0.000000 *  0.777777 *  0.166665 *  -9.85000    1.000000    
     59 Ce    c    0.800000 *  0.777777 *  0.666665 *  -9.85000    1.000000    
     60 Ce    c    0.900000 *  0.722223 *  0.833335 *  -9.85000    1.000000    
     61 Ce    c    0.900000 *  0.500000 *  0.500000 *  -9.85000    1.000000    
     62 Ce    c    0.600000 *  0.333333 *  0.000000 *  -9.85000    1.000000    
     63 Ce    c    0.600000 *  0.111110 *  0.166665 *  -9.85000    1.000000    
     64 Ce    c    0.100000 *  0.500000 *  0.500000 *  -9.85000    1.000000    
     65 Ce    c    0.700000 *  0.166667 *  0.000000 *  -9.85000    1.000000    
     66 Ce    c    0.700000 *  0.944443 *  0.166665 *  -9.85000    1.000000    
     67 Ce    c    0.200000 *  0.555557 *  0.333335 *  -9.85000    1.000000    
     68 Ce    c    0.500000 *  0.833333 *  0.500000 *  -9.85000    1.000000    
     69 Ce    c    0.200000 *  0.333333 *  0.500000 *  -9.85000    1.000000    
     70 Ce    c    0.600000 *  0.555557 *  0.833335 *  -9.85000    1.000000    
     71 Ce    c    0.500000 *  0.055557 *  0.833335 *  -9.85000    1.000000    
     72 Ce    c    0.300000 *  0.833333 *  0.500000 *  -9.85000    1.000000    
     73 Ce    c    0.400000 *  0.777777 *  0.666665 *  -9.85000    1.000000    
     74 Ce    c    0.200000 *  0.777777 *  0.666665 *  -9.85000    1.000000    
     75 Ce    c    0.800000 *  0.222223 *  0.833335 *  -9.85000    1.000000    
     76 Ce    c    0.400000 *  0.222223 *  0.333335 *  -9.85000    1.000000    
     77 Ce    c    0.100000 *  0.944443 *  0.166665 *  -9.85000    1.000000    
     78 Ce    c    0.000000 *  0.444443 *  0.166665 *  -9.85000    1.000000    
     79 Ce    c    0.200000 *  0.000000 *  0.500000 *  -9.85000    1.000000    
     80 Ce    c    0.200000 *  0.444443 *  0.166665 *  -9.85000    1.000000    
     81 Ce    c    0.300000 *  0.944443 *  0.666665 *  -9.85000    1.000000    
     82 Ce    c    0.200000 *  0.555557 *  0.833335 *  -9.85000    1.000000    
     83 Ce    c    0.400000 *  0.888890 *  0.333335 *  -9.85000    1.000000    
     84 Ce    c    0.100000 *  0.611110 *  0.666665 *  -9.85000    1.000000    
     85 Ce    c    0.900000 *  0.944443 *  0.666665 *  -9.85000    1.000000    
     86 Ce    c    0.700000 *  0.388890 *  0.333335 *  -9.85000    1.000000    
     87 Ce    c    0.400000 *  0.666667 *  0.000000 *  -9.85000    1.000000    
     88 Ce    c    0.500000 *  0.166667 *  0.000000 *  -9.85000    1.000000    
     89 Ce    c    0.000000 *  0.000000 *  0.500000 *  -9.85000    1.000000    
     90 Ce    c    0.300000 *  0.277777 *  0.166665 *  -9.85000    1.000000    
     91 Ce    c    0.700000 *  0.500000 *  0.500000 *  -9.85000    1.000000    
     92 Ce    c    0.500000 *  0.722223 *  0.333335 *  -9.85000    1.000000    
     93 Ce    c    0.300000 *  0.388890 *  0.333335 *  -9.85000    1.000000    
     94 Ce    c    0.900000 *  0.055557 *  0.333335 *  -9.85000    1.000000    
     95 Ce    c    0.600000 *  0.555557 *  0.333335 *  -9.85000    1.000000    
     96 Ce    c    0.100000 *  0.277777 *  0.666665 *  -9.85000    1.000000    
     97 Ce    c    0.200000 *  0.888890 *  0.833335 *  -9.85000    1.000000    
     98 Ce    c    0.200000 *  0.888890 *  0.333335 *  -9.85000    1.000000    
     99 Ce    c    0.500000 *  0.944443 *  0.666665 *  -9.85000    1.000000    
    100 Ce    c    0.500000 *  0.388890 *  0.333335 *  -9.85000    1.000000    
    101 Ce    c    0.300000 *  0.166667 *  0.500000 *  -9.85000    1.000000    
    102 Ce    c    0.100000 *  0.500000 *  0.000000 *  -9.85000    1.000000    
    103 Ce    c    0.800000 *  0.666667 *  0.000000 *  -9.85000    1.000000    
    104 Ce    c    0.500000 *  0.388890 *  0.833335 *  -9.85000    1.000000    
    105 Ce    c    0.400000 *  0.555557 *  0.333335 *  -9.85000    1.000000    
    106 Ce    c    0.800000 *  0.222223 *  0.333335 *  -9.85000    1.000000    
    107 Ce    c    0.300000 *  0.722223 *  0.333335 *  -9.85000    1.000000    
    108 Ce    c    0.600000 *  0.444443 *  0.666665 *  -9.85000    1.000000    
    109 Ce    c    0.900000 *  0.611110 *  0.666665 *  -9.85000    1.000000    
    110 Ce    c    0.800000 *  0.111110 *  0.666665 *  -9.85000    1.000000    
    111 Ce    c    0.800000 *  0.333333 *  0.000000 *  -9.85000    1.000000    
    112 Ce    c    0.100000 *  0.611110 *  0.166665 *  -9.85000    1.000000    
    113 Ce    c    0.100000 *  0.388890 *  0.333335 *  -9.85000    1.000000    
    114 Ce    c    0.900000 *  0.833333 *  0.000000 *  -9.85000    1.000000    
    115 Ce    c    0.700000 *  0.388890 *  0.833335 *  -9.85000    1.000000    
    116 Ce    c    0.600000 *  0.000000 *  0.000000 *  -9.85000    1.000000    
    117 Ce    c    0.500000 *  0.500000 *  0.000000 *  -9.85000    1.000000    
    118 Ce    c    0.300000 *  0.611110 *  0.166665 *  -9.85000    1.000000    
    119 Ce    c    0.500000 *  0.611110 *  0.166665 *  -9.85000    1.000000    
    120 Ce    c    0.300000 *  0.388890 *  0.833335 *  -9.85000    1.000000    
    121 Ce    c    0.700000 *  0.944443 *  0.666665 *  -9.85000    1.000000    
    122 Ce    c    0.600000 *  0.888890 *  0.833335 *  -9.85000    1.000000    
    123 Ce    c    0.600000 *  0.777777 *  0.666665 *  -9.85000    1.000000    
    124 Ce    c    0.600000 *  0.777777 *  0.166665 *  -9.85000    1.000000    
    125 Ce    c    0.100000 *  0.277777 *  0.166665 *  -9.85000    1.000000    
    126 Ce    c    0.500000 *  0.722223 *  0.833335 *  -9.85000    1.000000    
    127 Ce    c    0.600000 *  0.666667 *  0.000000 *  -9.85000    1.000000    
    128 Ce    c    0.900000 *  0.055557 *  0.833335 *  -9.85000    1.000000    
    129 Ce    c    0.300000 *  0.500000 *  0.000000 *  -9.85000    1.000000    
    130 Ce    c    0.300000 *  0.500000 *  0.500000 *  -9.85000    1.000000    
    131 Ce    c    0.800000 *  0.666667 *  0.500000 *  -9.85000    1.000000    
    132 Ce    c    0.400000 *  0.333333 *  0.500000 *  -9.85000    1.000000    
    133 Ce    c    0.700000 *  0.722223 *  0.833335 *  -9.85000    1.000000    
    134 Ce    c    0.300000 *  0.055557 *  0.833335 *  -9.85000    1.000000    
    135 Ce    c    0.700000 *  0.277777 *  0.666665 *  -9.85000    1.000000    
    136 Ce    c    0.700000 *  0.500000 *  0.000000 *  -9.85000    1.000000    
    137 Ce    c    0.200000 *  0.000000 *  0.000000 *  -9.85000    1.000000    
    138 Ce    c    0.100000 *  0.166667 *  0.500000 *  -9.85000    1.000000    
    139 Ce    c    0.900000 *  0.833333 *  0.500000 *  -9.85000    1.000000    
    140 Ce    c    0.800000 *  0.111110 *  0.166665 *  -9.85000    1.000000    
    141 Ce    c    0.500000 *  0.611110 *  0.666665 *  -9.85000    1.000000    
    142 Ce    c    0.000000 *  0.777777 *  0.666665 *  -9.85000    1.000000    
    143 Ce    c    0.400000 *  0.333333 *  0.000000 *  -9.85000    1.000000    
    144 Ce    c    0.100000 *  0.388890 *  0.833335 *  -9.85000    1.000000    
    145 Ce    c    0.400000 *  0.111110 *  0.666665 *  -9.85000    1.000000    
    146 Ce    c    0.600000 *  0.000000 *  0.500000 *  -9.85000    1.000000    
    147 Ce    c    0.100000 *  0.833333 *  0.500000 *  -9.85000    1.000000    
    148 Ce    c    0.100000 *  0.833333 *  0.000000 *  -9.85000    1.000000    
    149 Ce    c    0.700000 *  0.055557 *  0.833335 *  -9.85000    1.000000    
    150 Ce    c    0.700000 *  0.722223 *  0.333335 *  -9.85000    1.000000    
    151 Ce    c    0.600000 *  0.111110 *  0.666665 *  -9.85000    1.000000    
    152 Ce    c    0.700000 *  0.166667 *  0.500000 *  -9.85000    1.000000    
    153 Ce    c    0.800000 *  0.333333 *  0.500000 *  -9.85000    1.000000    
    154 Ce    c    0.000000 *  0.666667 *  0.000000 *  -9.85000    1.000000    
    155 Ce    c    0.400000 *  0.444443 *  0.166665 *  -9.85000    1.000000    
    156 Ce    c    0.400000 *  0.555557 *  0.833335 *  -9.85000    1.000000    
    157 Ce    c    0.500000 *  0.944443 *  0.166665 *  -9.85000    1.000000    
    158 Ce    c    0.900000 *  0.944443 *  0.166665 *  -9.85000    1.000000    
    159 Ce    c    0.400000 *  0.222223 *  0.833335 *  -9.85000    1.000000    
    160 Ce    c    0.000000 *  0.888890 *  0.833335 *  -9.85000    1.000000    
    161 Ce    c    0.400000 *  0.000000 *  0.000000 *  -9.85000    1.000000    
    162 Ce    c    0.800000 *  0.555557 *  0.833335 *  -9.85000    1.000000    
    163 Ce    c    0.400000 *  0.111110 *  0.166665 *  -9.85000    1.000000    
    164 Ce    c    0.900000 *  0.166667 *  0.000000 *  -9.85000    1.000000    
    165 Ce    c    0.700000 *  0.611110 *  0.166665 *  -9.85000    1.000000    
    166 Ce    c    0.000000 *  0.444443 *  0.666665 *  -9.85000    1.000000    
    167 Ce    c    0.700000 *  0.055557 *  0.333335 *  -9.85000    1.000000    
    168 Ce    c    0.300000 *  0.055557 *  0.333335 *  -9.85000    1.000000    
    169 Ce    c    0.000000 *  0.888890 *  0.333335 *  -9.85000    1.000000    
    170 Ce    c    0.000000 *  0.111110 *  0.666665 *  -9.85000    1.000000    
    171 Ce    c    0.600000 *  0.333333 *  0.500000 *  -9.85000    1.000000    
    172 Ce    c    0.200000 *  0.111110 *  0.666665 *  -9.85000    1.000000    
    173 Ce    c    0.800000 *  0.000000 *  0.000000 *  -9.85000    1.000000    
    174 Ce    c    0.300000 *  0.611110 *  0.666665 *  -9.85000    1.000000    
    175 Ce    c    0.100000 *  0.055557 *  0.833335 *  -9.85000    1.000000    
    176 Ce    c    0.600000 *  0.444443 *  0.166665 *  -9.85000    1.000000    
    177 Ce    c    0.400000 *  0.777777 *  0.166665 *  -9.85000    1.000000    
    178 Ce    c    0.300000 *  0.277777 *  0.666665 *  -9.85000    1.000000    
    179 Ce    c    0.300000 *  0.833333 *  0.000000 *  -9.85000    1.000000    
    180 Ce    c    0.100000 *  0.055557 *  0.333335 *  -9.85000    1.000000    
    181 O     c    0.300000 *  0.722223 *  0.458335 *   0.93635    1.000000    
    182 O     c    0.200000 *  0.555557 *  0.458335 *   0.93635    1.000000    
    183 O     c    0.100000 *  0.388890 *  0.958335 *   0.93635    1.000000    
    184 O     c    0.000000 *  0.777777 *  0.791665 *   0.93635    1.000000    
    185 O     c    0.600000 *  0.000000 *  0.875000 *   0.93635    1.000000    
    186 O     c    0.800000 *  0.888890 *  0.958335 *   0.93635    1.000000    
    187 O     c    0.800000 *  0.000000 *  0.625000 *   0.93635    1.000000    
    188 O     c    0.500000 *  0.277777 *  0.041665 *   0.93635    1.000000    
    189 O     c    0.200000 *  0.666667 *  0.125000 *   0.93635    1.000000    
    190 O     c    0.900000 *  0.722223 *  0.458335 *   0.93635    1.000000    
    191 O     c    0.100000 *  0.055557 *  0.458335 *   0.93635    1.000000    
    192 O     c    0.500000 *  0.611110 *  0.541665 *   0.93635    1.000000    
    193 O     c    0.200000 *  0.333333 *  0.625000 *   0.93635    1.000000    
    194 O     c    0.600000 *  0.000000 *  0.375000 *   0.93635    1.000000    
    195 O     c    0.300000 *  0.611110 *  0.541665 *   0.93635    1.000000    
    196 O     c    0.100000 *  0.611110 *  0.791665 *   0.93635    1.000000    
    197 O     c    0.000000 *  0.222223 *  0.458335 *   0.93635    1.000000    
    198 O     c    0.700000 *  0.388890 *  0.458335 *   0.93635    1.000000    
    199 O     c    0.600000 *  0.111110 *  0.791665 *   0.93635    1.000000    
    200 O     c    0.800000 *  0.111110 *  0.791665 *   0.93635    1.000000    
    201 O     c    0.000000 *  0.888890 *  0.458335 *   0.93635    1.000000    
    202 O     c    0.000000 *  0.888890 *  0.708335 *   0.93635    1.000000    
    203 O     c    0.600000 *  0.888890 *  0.958335 *   0.93635    1.000000    
    204 O     c    0.700000 *  0.611110 *  0.791665 *   0.93635    1.000000    
    205 O     c    0.500000 *  0.166667 *  0.625000 *   0.93635    1.000000    
    206 O     c    0.100000 *  0.166667 *  0.375000 *   0.93635    1.000000    
    207 O     c    0.000000 *  0.555557 *  0.208335 *   0.93635    1.000000    
    208 O     c    0.800000 *  0.222223 *  0.458335 *   0.93635    1.000000    
    209 O     c    0.400000 *  0.888890 *  0.458335 *   0.93635    1.000000    
    210 O     c    0.200000 *  0.888890 *  0.708335 *   0.93635    1.000000    
    211 O     c    0.200000 *  0.555557 *  0.958335 *   0.93635    1.000000    
    212 O     c    0.400000 *  0.222223 *  0.708335 *   0.93635    1.000000    
    213 O     c    0.000000 *  0.000000 *  0.375000 *   0.93635    1.000000    
    214 O     c    0.600000 *  0.777777 *  0.541665 *   0.93635    1.000000    
    215 O     c    0.800000 *  0.444443 *  0.291665 *   0.93635    1.000000    
    216 O     c    0.000000 *  0.111110 *  0.041665 *   0.93635    1.000000    
    217 O     c    0.800000 *  0.555557 *  0.958335 *   0.93635    1.000000    
    218 O     c    0.100000 *  0.055557 *  0.958335 *   0.93635    1.000000    
    219 O     c    0.400000 *  0.000000 *  0.875000 *   0.93635    1.000000    
    220 O     c    0.800000 *  0.222223 *  0.958335 *   0.93635    1.000000    
    221 O     c    0.000000 *  0.666667 *  0.625000 *   0.93635    1.000000    
    222 O     c    0.700000 *  0.166667 *  0.375000 *   0.93635    1.000000    
    223 O     c    0.500000 *  0.833333 *  0.625000 *   0.93635    1.000000    
    224 O     c    0.300000 *  0.166667 *  0.875000 *   0.93635    1.000000    
    225 O     c    0.700000 *  0.833333 *  0.375000 *   0.93635    1.000000    
    226 O     c    0.900000 *  0.611110 *  0.541665 *   0.93635    1.000000    
    227 O     c    0.800000 *  0.111110 *  0.291665 *   0.93635    1.000000    
    228 O     c    0.400000 *  0.000000 *  0.125000 *   0.93635    1.000000    
    229 O     c    0.700000 *  0.277777 *  0.041665 *   0.93635    1.000000    
    230 O     c    0.600000 *  0.555557 *  0.708335 *   0.93635    1.000000    
    231 O     c    0.700000 *  0.833333 *  0.125000 *   0.93635    1.000000    
    232 O     c    0.000000 *  0.333333 *  0.875000 *   0.93635    1.000000    
    233 O     c    0.300000 *  0.388890 *  0.958335 *   0.93635    1.000000    
    234 O     c    0.000000 *  0.000000 *  0.625000 *   0.93635    1.000000    
    235 O     c    0.600000 *  0.777777 *  0.041665 *   0.93635    1.000000    
    236 O     c    0.700000 *  0.500000 *  0.375000 *   0.93635    1.000000    
    237 O     c    0.900000 *  0.833333 *  0.875000 *   0.93635    1.000000    
    238 O     c    0.800000 *  0.777777 *  0.541665 *   0.93635    1.000000    
    239 O     c    0.000000 *  0.000000 *  0.875000 *   0.93635    1.000000    
    240 O     c    0.400000 *  0.666667 *  0.125000 *   0.93635    1.000000    
    241 O     c    0.800000 *  0.111110 *  0.041665 *   0.93635    1.000000    
    242 O     c    0.200000 *  0.888890 *  0.458335 *   0.93635    1.000000    
    243 O     c    0.600000 *  0.666667 *  0.875000 *   0.93635    1.000000    
    244 O     c    0.800000 *  0.222223 *  0.208335 *   0.93635    1.000000    
    245 O     c    0.100000 *  0.611110 *  0.041665 *   0.93635    1.000000    
    246 O     c    0.500000 *  0.722223 *  0.458335 *   0.93635    1.000000    
    247 O     c    0.300000 *  0.611110 *  0.791665 *   0.93635    1.000000    
    248 O     c    0.900000 *  0.277777 *  0.791665 *   0.93635    1.000000    
    249 O     c    0.200000 *  0.333333 *  0.875000 *   0.93635    1.000000    
    250 O     c    0.900000 *  0.055557 *  0.458335 *   0.93635    1.000000    
    251 O     c    0.900000 *  0.944443 *  0.291665 *   0.93635    1.000000    
    252 O     c    0.500000 *  0.722223 *  0.708335 *   0.93635    1.000000    
    253 O     c    0.100000 *  0.388890 *  0.458335 *   0.93635    1.000000    
    254 O     c    0.800000 *  0.222223 *  0.708335 *   0.93635    1.000000    
    255 O     c    0.400000 *  0.777777 *  0.041665 *   0.93635    1.000000    
    256 O     c    0.500000 *  0.944443 *  0.791665 *   0.93635    1.000000    
    257 O     c    0.300000 *  0.388890 *  0.708335 *   0.93635    1.000000    
    258 O     c    0.200000 *  0.111110 *  0.541665 *   0.93635    1.000000    
    259 O     c    0.600000 *  0.111110 *  0.291665 *   0.93635    1.000000    
    260 O     c    0.100000 *  0.500000 *  0.875000 *   0.93635    1.000000    
    261 O     c    0.600000 *  0.333333 *  0.625000 *   0.93635    1.000000    
    262 O     c    0.700000 *  0.944443 *  0.041665 *   0.93635    1.000000    
    263 O     c    0.900000 *  0.611110 *  0.791665 *   0.93635    1.000000    
    264 O     c    0.000000 *  0.555557 *  0.458335 *   0.93635    1.000000    
    265 O     c    0.400000 *  0.777777 *  0.791665 *   0.93635    1.000000    
    266 O     c    0.500000 *  0.055557 *  0.958335 *   0.93635    1.000000    
    267 O     c    0.300000 *  0.944443 *  0.541665 *   0.93635    1.000000    
    268 O     c    0.300000 *  0.388890 *  0.208335 *   0.93635    1.000000    
    269 O     c    0.800000 *  0.444443 *  0.541665 *   0.93635    1.000000    
    270 O     c    0.300000 *  0.277777 *  0.291665 *   0.93635    1.000000    
    271 O     c    0.000000 *  0.222223 *  0.958335 *   0.93635    1.000000    
    272 O     c    0.500000 *  0.500000 *  0.625000 *   0.93635    1.000000    
    273 O     c    0.900000 *  0.388890 *  0.458335 *   0.93635    1.000000    
    274 O     c    0.100000 *  0.833333 *  0.375000 *   0.93635    1.000000    
    275 O     c    0.800000 *  0.666667 *  0.375000 *   0.93635    1.000000    
    276 O     c    0.000000 *  0.000000 *  0.125000 *   0.93635    1.000000    
    277 O     c    0.200000 *  0.333333 *  0.375000 *   0.93635    1.000000    
    278 O     c    0.200000 *  0.666667 *  0.875000 *   0.93635    1.000000    
    279 O     c    0.600000 *  0.666667 *  0.625000 *   0.93635    1.000000    
    280 O     c    0.100000 *  0.277777 *  0.041665 *   0.93635    1.000000    
    281 O     c    0.900000 *  0.166667 *  0.625000 *   0.93635    1.000000    
    282 O     c    0.500000 *  0.944443 *  0.291665 *   0.93635    1.000000    
    283 O     c    0.200000 *  0.777777 *  0.041665 *   0.93635    1.000000    
    284 O     c    0.300000 *  0.833333 *  0.125000 *   0.93635    1.000000    
    285 O     c    0.800000 *  0.888890 *  0.208335 *   0.93635    1.000000    
    286 O     c    0.500000 *  0.833333 *  0.875000 *   0.93635    1.000000    
    287 O     c    0.000000 *  0.444443 *  0.541665 *   0.93635    1.000000    
    288 O     c    0.500000 *  0.500000 *  0.375000 *   0.93635    1.000000    
    289 O     c    0.500000 *  0.611110 *  0.791665 *   0.93635    1.000000    
    290 O     c    0.600000 *  0.444443 *  0.291665 *   0.93635    1.000000    
    291 O     c    0.500000 *  0.388890 *  0.458335 *   0.93635    1.000000    
    292 O     c    0.700000 *  0.722223 *  0.958335 *   0.93635    1.000000    
    293 O     c    0.200000 *  0.555557 *  0.708335 *   0.93635    1.000000    
    294 O     c    0.400000 *  0.555557 *  0.958335 *   0.93635    1.000000    
    295 O     c    0.200000 *  0.555557 *  0.208335 *   0.93635    1.000000    
    296 O     c    0.400000 *  0.000000 *  0.625000 *   0.93635    1.000000    
    297 O     c    0.900000 *  0.055557 *  0.958335 *   0.93635    1.000000    
    298 O     c    0.000000 *  0.222223 *  0.708335 *   0.93635    1.000000    
    299 O     c    0.700000 *  0.500000 *  0.875000 *   0.93635    1.000000    
    300 O     c    0.600000 *  0.555557 *  0.958335 *   0.93635    1.000000    
    301 O     c    0.600000 *  0.666667 *  0.125000 *   0.93635    1.000000    
    302 O     c    0.400000 *  0.666667 *  0.625000 *   0.93635    1.000000    
    303 O     c    0.600000 *  0.555557 *  0.208335 *   0.93635    1.000000    
    304 O     c    0.200000 *  0.333333 *  0.125000 *   0.93635    1.000000    
    305 O     c    0.100000 *  0.722223 *  0.958335 *   0.93635    1.000000    
    306 O     c    0.700000 *  0.277777 *  0.791665 *   0.93635    1.000000    
    307 O     c    0.200000 *  0.222223 *  0.958335 *   0.93635    1.000000    
    308 O     c    0.300000 *  0.166667 *  0.125000 *   0.93635    1.000000    
    309 O     c    0.600000 *  0.000000 *  0.125000 *   0.93635    1.000000    
    310 O     c    0.300000 *  0.277777 *  0.791665 *   0.93635    1.000000    
    311 O     c    0.700000 *  0.277777 *  0.541665 *   0.93635    1.000000    
    312 O     c    0.100000 *  0.277777 *  0.541665 *   0.93635    1.000000    
    313 O     c    0.500000 *  0.722223 *  0.208335 *   0.93635    1.000000    
    314 O     c    0.900000 *  0.944443 *  0.041665 *   0.93635    1.000000    
    315 O     c    0.600000 *  0.888890 *  0.458335 *   0.93635    1.000000    
    316 O     c    0.400000 *  0.333333 *  0.625000 *   0.93635    1.000000    
    317 O     c    0.100000 *  0.055557 *  0.708335 *   0.93635    1.000000    
    318 O     c    0.500000 *  0.277777 *  0.291665 *   0.93635    1.000000    
    319 O     c    0.300000 *  0.833333 *  0.625000 *   0.93635    1.000000    
    320 O     c    0.100000 *  0.944443 *  0.041665 *   0.93635    1.000000    
    321 O     c    0.000000 *  0.111110 *  0.791665 *   0.93635    1.000000    
    322 O     c    0.100000 *  0.277777 *  0.791665 *   0.93635    1.000000    
    323 O     c    0.700000 *  0.055557 *  0.458335 *   0.93635    1.000000    
    324 O     c    0.500000 *  0.166667 *  0.125000 *   0.93635    1.000000    
    325 O     c    0.400000 *  0.666667 *  0.875000 *   0.93635    1.000000    
    326 O     c    0.900000 *  0.166667 *  0.125000 *   0.93635    1.000000    
    327 O     c    0.900000 *  0.500000 *  0.375000 *   0.93635    1.000000    
    328 O     c    0.100000 *  0.500000 *  0.125000 *   0.93635    1.000000    
    329 O     c    0.400000 *  0.555557 *  0.708335 *   0.93635    1.000000    
    330 O     c    0.700000 *  0.166667 *  0.125000 *   0.93635    1.000000    
    331 O     c    0.300000 *  0.055557 *  0.708335 *   0.93635    1.000000    
    332 O     c    0.800000 *  0.666667 *  0.875000 *   0.93635    1.000000    
    333 O     c    0.900000 *  0.944443 *  0.791665 *   0.93635    1.000000    
    334 O     c    0.100000 *  0.722223 *  0.708335 *   0.93635    1.000000    
    335 O     c    0.300000 *  0.944443 *  0.291665 *   0.93635    1.000000    
    336 O     c    0.600000 *  0.333333 *  0.375000 *   0.93635    1.000000    
    337 O     c    0.500000 *  0.833333 *  0.375000 *   0.93635    1.000000    
    338 O     c    0.300000 *  0.722223 *  0.958335 *   0.93635    1.000000    
    339 O     c    0.300000 *  0.055557 *  0.958335 *   0.93635    1.000000    
    340 O     c    0.700000 *  0.611110 *  0.541665 *   0.93635    1.000000    
    341 O     c    0.400000 *  0.111110 *  0.041665 *   0.93635    1.000000    
    342 O     c    0.000000 *  0.333333 *  0.125000 *   0.93635    1.000000    
    343 O     c    0.300000 *  0.277777 *  0.541665 *   0.93635    1.000000    
    344 O     c    0.700000 *  0.944443 *  0.791665 *   0.93635    1.000000    
    345 O     c    0.900000 *  0.055557 *  0.208335 *   0.93635    1.000000    
    346 O     c    0.600000 *  0.444443 *  0.541665 *   0.93635    1.000000    
    347 O     c    0.300000 *  0.500000 *  0.625000 *   0.93635    1.000000    
    348 O     c    0.700000 *  0.055557 *  0.708335 *   0.93635    1.000000    
    349 O     c    0.400000 *  0.444443 *  0.291665 *   0.93635    1.000000    
    350 O     c    0.300000 *  0.166667 *  0.375000 *   0.93635    1.000000    
    351 O     c    0.100000 *  0.500000 *  0.625000 *   0.93635    1.000000    
    352 O     c    0.700000 *  0.833333 *  0.625000 *   0.93635    1.000000    
    353 O     c    0.900000 *  0.722223 *  0.958335 *   0.93635    1.000000    
    354 O     c    0.900000 *  0.388890 *  0.958335 *   0.93635    1.000000    
    355 O     c    0.800000 *  0.888890 *  0.708335 *   0.93635    1.000000    
    356 O     c    0.500000 *  0.500000 *  0.125000 *   0.93635    1.000000    
    357 O     c    0.900000 *  0.166667 *  0.375000 *   0.93635    1.000000    
    358 O     c    0.700000 *  0.055557 *  0.958335 *   0.93635    1.000000    
    359 O     c    0.800000 *  0.111110 *  0.541665 *   0.93635    1.000000    
    360 O     c    0.200000 *  0.777777 *  0.541665 *   0.93635    1.000000    
    361 O     c    0.500000 *  0.166667 *  0.375000 *   0.93635    1.000000    
    362 O     c    0.500000 *  0.944443 *  0.541665 *   0.93635    1.000000    
    363 O     c    0.200000 *  0.111110 *  0.291665 *   0.93635    1.000000    
    364 O     c    0.100000 *  0.166667 *  0.625000 *   0.93635    1.000000    
    365 O     c    0.500000 *  0.055557 *  0.208335 *   0.93635    1.000000    
    366 O     c    0.400000 *  0.777777 *  0.291665 *   0.93635    1.000000    
    367 O     c    0.200000 *  0.777777 *  0.791665 *   0.93635    1.000000    
    368 O     c    0.600000 *  0.444443 *  0.041665 *   0.93635    1.000000    
    369 O     c    0.100000 *  0.833333 *  0.875000 *   0.93635    1.000000    
    370 O     c    0.900000 *  0.611110 *  0.041665 *   0.93635    1.000000    
    371 O     c    0.400000 *  0.222223 *  0.458335 *   0.93635    1.000000    
    372 O     c    0.800000 *  0.777777 *  0.041665 *   0.93635    1.000000    
    373 O     c    0.000000 *  0.444443 *  0.791665 *   0.93635    1.000000    
    374 O     c    0.300000 *  0.055557 *  0.208335 *   0.93635    1.000000    
    375 O     c    0.200000 *  0.000000 *  0.625000 *   0.93635    1.000000    
    376 O     c    0.700000 *  0.722223 *  0.208335 *   0.93635    1.000000    
    377 O     c    0.800000 *  0.555557 *  0.458335 *   0.93635    1.000000    
    378 O     c    0.900000 *  0.277777 *  0.041665 *   0.93635    1.000000    
    379 O     c    0.300000 *  0.722223 *  0.208335 *   0.93635    1.000000    
    380 O     c    0.000000 *  0.333333 *  0.375000 *   0.93635    1.000000    
    381 O     c    0.000000 *  0.666667 *  0.375000 *   0.93635    1.000000    
    382 O     c    0.800000 *  0.666667 *  0.625000 *   0.93635    1.000000    
    383 O     c    0.400000 *  0.111110 *  0.291665 *   0.93635    1.000000    
    384 O     c    0.800000 *  0.777777 *  0.291665 *   0.93635    1.000000    
    385 O     c    0.400000 *  0.111110 *  0.791665 *   0.93635    1.000000    
    386 O     c    0.900000 *  0.722223 *  0.708335 *   0.93635    1.000000    
    387 O     c    0.300000 *  0.611110 *  0.041665 *   0.93635    1.000000    
    388 O     c    0.700000 *  0.833333 *  0.875000 *   0.93635    1.000000    
    389 O     c    0.600000 *  0.777777 *  0.291665 *   0.93635    1.000000    
    390 O     c    0.100000 *  0.166667 *  0.125000 *   0.93635    1.000000    
    391 O     c    0.100000 *  0.833333 *  0.125000 *   0.93635    1.000000    
    392 O     c    0.500000 *  0.500000 *  0.875000 *   0.93635    1.000000    
    393 O     c    0.400000 *  0.555557 *  0.208335 *   0.93635    1.000000    
    394 O     c    0.000000 *  0.666667 *  0.875000 *   0.93635    1.000000    
    395 O     c    0.200000 *  0.111110 *  0.791665 *   0.93635    1.000000    
    396 O     c    0.900000 *  0.277777 *  0.291665 *   0.93635    1.000000    
    397 O     c    0.700000 *  0.500000 *  0.125000 *   0.93635    1.000000    
    398 O     c    0.000000 *  0.333333 *  0.625000 *   0.93635    1.000000    
    399 O     c    0.900000 *  0.388890 *  0.208335 *   0.93635    1.000000    
    400 O     c    0.900000 *  0.277777 *  0.541665 *   0.93635    1.000000    
    401 O     c    0.500000 *  0.388890 *  0.958335 *   0.93635    1.000000    
    402 O     c    0.900000 *  0.944443 *  0.541665 *   0.93635    1.000000    
    403 O     c    0.800000 *  0.333333 *  0.375000 *   0.93635    1.000000    
    404 O     c    0.900000 *  0.722223 *  0.208335 *   0.93635    1.000000    
    405 O     c    0.200000 *  0.111110 *  0.041665 *   0.93635    1.000000    
    406 O     c    0.700000 *  0.611110 *  0.041665 *   0.93635    1.000000    
    407 O     c    0.700000 *  0.388890 *  0.708335 *   0.93635    1.000000    
    408 O     c    0.500000 *  0.944443 *  0.041665 *   0.93635    1.000000    
    409 O     c    0.200000 *  0.444443 *  0.541665 *   0.93635    1.000000    
    410 O     c    0.800000 *  0.888890 *  0.458335 *   0.93635    1.000000    
    411 O     c    0.000000 *  0.777777 *  0.041665 *   0.93635    1.000000    
    412 O     c    0.200000 *  0.000000 *  0.375000 *   0.93635    1.000000    
    413 O     c    0.400000 *  0.222223 *  0.208335 *   0.93635    1.000000    
    414 O     c    0.200000 *  0.666667 *  0.375000 *   0.93635    1.000000    
    415 O     c    0.500000 *  0.833333 *  0.125000 *   0.93635    1.000000    
    416 O     c    0.000000 *  0.666667 *  0.125000 *   0.93635    1.000000    
    417 O     c    0.700000 *  0.611110 *  0.291665 *   0.93635    1.000000    
    418 O     c    0.300000 *  0.833333 *  0.875000 *   0.93635    1.000000    
    419 O     c    0.700000 *  0.277777 *  0.291665 *   0.93635    1.000000    
    420 O     c    0.300000 *  0.833333 *  0.375000 *   0.93635    1.000000    
    421 O     c    0.800000 *  0.333333 *  0.625000 *   0.93635    1.000000    
    422 O     c    0.400000 *  0.777777 *  0.541665 *   0.93635    1.000000    
    423 O     c    0.000000 *  0.444443 *  0.041665 *   0.93635    1.000000    
    424 O     c    0.000000 *  0.888890 *  0.208335 *   0.93635    1.000000    
    425 O     c    0.500000 *  0.611110 *  0.041665 *   0.93635    1.000000    
    426 O     c    0.300000 *  0.611110 *  0.291665 *   0.93635    1.000000    
    427 O     c    0.600000 *  0.222223 *  0.708335 *   0.93635    1.000000    
    428 O     c    0.100000 *  0.944443 *  0.791665 *   0.93635    1.000000    
    429 O     c    0.300000 *  0.500000 *  0.875000 *   0.93635    1.000000    
    430 O     c    0.900000 *  0.833333 *  0.375000 *   0.93635    1.000000    
    431 O     c    0.200000 *  0.777777 *  0.291665 *   0.93635    1.000000    
    432 O     c    0.300000 *  0.944443 *  0.791665 *   0.93635    1.000000    
    433 O     c    0.000000 *  0.222223 *  0.208335 *   0.93635    1.000000    
    434 O     c    0.600000 *  0.333333 *  0.875000 *   0.93635    1.000000    
    435 O     c    0.800000 *  0.444443 *  0.041665 *   0.93635    1.000000    
    436 O     c    0.600000 *  0.222223 *  0.958335 *   0.93635    1.000000    
    437 O     c    0.700000 *  0.166667 *  0.625000 *   0.93635    1.000000    
    438 O     c    0.100000 *  0.055557 *  0.208335 *   0.93635    1.000000    
    439 O     c    0.000000 *  0.111110 *  0.541665 *   0.93635    1.000000    
    440 O     c    0.600000 *  0.777777 *  0.791665 *   0.93635    1.000000    
    441 O     c    0.400000 *  0.333333 *  0.375000 *   0.93635    1.000000    
    442 O     c    0.200000 *  0.222223 *  0.458335 *   0.93635    1.000000    
    443 O     c    0.100000 *  0.833333 *  0.625000 *   0.93635    1.000000    
    444 O     c    0.700000 *  0.722223 *  0.708335 *   0.93635    1.000000    
    445 O     c    0.500000 *  0.277777 *  0.541665 *   0.93635    1.000000    
    446 O     c    0.100000 *  0.611110 *  0.291665 *   0.93635    1.000000    
    447 O     c    0.900000 *  0.500000 *  0.625000 *   0.93635    1.000000    
    448 O     c    0.100000 *  0.277777 *  0.291665 *   0.93635    1.000000    
    449 O     c    0.300000 *  0.500000 *  0.125000 *   0.93635    1.000000    
    450 O     c    0.700000 *  0.722223 *  0.458335 *   0.93635    1.000000    
    451 O     c    0.300000 *  0.388890 *  0.458335 *   0.93635    1.000000    
    452 O     c    0.300000 *  0.944443 *  0.041665 *   0.93635    1.000000    
    453 O     c    0.300000 *  0.277777 *  0.041665 *   0.93635    1.000000    
    454 O     c    0.200000 *  0.444443 *  0.291665 *   0.93635    1.000000    
    455 O     c    0.200000 *  0.444443 *  0.041665 *   0.93635    1.000000    
    456 O     c    0.900000 *  0.166667 *  0.875000 *   0.93635    1.000000    
    457 O     c    0.300000 *  0.722223 *  0.708335 *   0.93635    1.000000    
    458 O     c    0.000000 *  0.444443 *  0.291665 *   0.93635    1.000000    
    459 O     c    0.100000 *  0.944443 *  0.291665 *   0.93635    1.000000    
    460 O     c    0.700000 *  0.500000 *  0.625000 *   0.93635    1.000000    
    461 O     c    0.800000 *  0.333333 *  0.875000 *   0.93635    1.000000    
    462 O     c    0.800000 *  0.777777 *  0.791665 *   0.93635    1.000000    
    463 O     c    0.200000 *  0.000000 *  0.875000 *   0.93635    1.000000    
    464 O     c    0.500000 *  0.388890 *  0.708335 *   0.93635    1.000000    
    465 O     c    0.700000 *  0.944443 *  0.541665 *   0.93635    1.000000    
    466 O     c    0.800000 *  0.444443 *  0.791665 *   0.93635    1.000000    
    467 O     c    0.000000 *  0.555557 *  0.708335 *   0.93635    1.000000    
    468 O     c    0.500000 *  0.055557 *  0.458335 *   0.93635    1.000000    
    469 O     c    0.100000 *  0.722223 *  0.208335 *   0.93635    1.000000    
    470 O     c    0.900000 *  0.055557 *  0.708335 *   0.93635    1.000000    
    471 O     c    0.600000 *  0.111110 *  0.041665 *   0.93635    1.000000    
    472 O     c    0.500000 *  0.722223 *  0.958335 *   0.93635    1.000000    
    473 O     c    0.300000 *  0.166667 *  0.625000 *   0.93635    1.000000    
    474 O     c    0.600000 *  0.111110 *  0.541665 *   0.93635    1.000000    
    475 O     c    0.700000 *  0.166667 *  0.875000 *   0.93635    1.000000    
    476 O     c    0.100000 *  0.611110 *  0.541665 *   0.93635    1.000000    
    477 O     c    0.900000 *  0.388890 *  0.708335 *   0.93635    1.000000    
    478 O     c    0.900000 *  0.833333 *  0.125000 *   0.93635    1.000000    
    479 O     c    0.800000 *  0.555557 *  0.708335 *   0.93635    1.000000    
    480 O     c    0.800000 *  0.000000 *  0.375000 *   0.93635    1.000000    
    481 O     c    0.400000 *  0.333333 *  0.125000 *   0.93635    1.000000    
    482 O     c    0.600000 *  0.333333 *  0.125000 *   0.93635    1.000000    
    483 O     c    0.100000 *  0.722223 *  0.458335 *   0.93635    1.000000    
    484 O     c    0.100000 *  0.388890 *  0.708335 *   0.93635    1.000000    
    485 O     c    0.700000 *  0.388890 *  0.958335 *   0.93635    1.000000    
    486 O     c    0.900000 *  0.500000 *  0.875000 *   0.93635    1.000000    
    487 O     c    0.700000 *  0.388890 *  0.208335 *   0.93635    1.000000    
    488 O     c    0.200000 *  0.888890 *  0.208335 *   0.93635    1.000000    
    489 O     c    0.400000 *  0.555557 *  0.458335 *   0.93635    1.000000    
    490 O     c    0.400000 *  0.444443 *  0.041665 *   0.93635    1.000000    
    491 O     c    0.000000 *  0.777777 *  0.541665 *   0.93635    1.000000    
    492 O     c    0.100000 *  0.388890 *  0.208335 *   0.93635    1.000000    
    493 O     c    0.700000 *  0.055557 *  0.208335 *   0.93635    1.000000    
    494 O     c    0.400000 *  0.666667 *  0.375000 *   0.93635    1.000000    
    495 O     c    0.600000 *  0.888890 *  0.208335 *   0.93635    1.000000    
    496 O     c    0.400000 *  0.888890 *  0.208335 *   0.93635    1.000000    
    497 O     c    0.400000 *  0.888890 *  0.708335 *   0.93635    1.000000    
    498 O     c    0.200000 *  0.444443 *  0.791665 *   0.93635    1.000000    
    499 O     c    0.900000 *  0.611110 *  0.291665 *   0.93635    1.000000    
    500 O     c    0.200000 *  0.888890 *  0.958335 *   0.93635    1.000000    
    501 O     c    0.100000 *  0.166667 *  0.875000 *   0.93635    1.000000    
    502 O     c    0.600000 *  0.555557 *  0.458335 *   0.93635    1.000000    
    503 O     c    0.600000 *  0.000000 *  0.625000 *   0.93635    1.000000    
    504 O     c    0.500000 *  0.611110 *  0.291665 *   0.93635    1.000000    
    505 O     c    0.100000 *  0.500000 *  0.375000 *   0.93635    1.000000    
    506 O     c    0.900000 *  0.833333 *  0.625000 *   0.93635    1.000000    
    507 O     c    0.200000 *  0.666667 *  0.625000 *   0.93635    1.000000    
    508 O     c    0.300000 *  0.055557 *  0.458335 *   0.93635    1.000000    
    509 O     c    0.000000 *  0.888890 *  0.958335 *   0.93635    1.000000    
    510 O     c    0.800000 *  0.666667 *  0.125000 *   0.93635    1.000000    
    511 O     c    0.200000 *  0.222223 *  0.708335 *   0.93635    1.000000    
    512 O     c    0.700000 *  0.944443 *  0.291665 *   0.93635    1.000000    
    513 O     c    0.800000 *  0.555557 *  0.208335 *   0.93635    1.000000    
    514 O     c    0.600000 *  0.666667 *  0.375000 *   0.93635    1.000000    
    515 O     c    0.600000 *  0.444443 *  0.791665 *   0.93635    1.000000    
    516 O     c    0.500000 *  0.388890 *  0.208335 *   0.93635    1.000000    
    517 O     c    0.200000 *  0.000000 *  0.125000 *   0.93635    1.000000    
    518 O     c    0.800000 *  0.000000 *  0.875000 *   0.93635    1.000000    
    519 O     c    0.500000 *  0.055557 *  0.708335 *   0.93635    1.000000    
    520 O     c    0.800000 *  0.333333 *  0.125000 *   0.93635    1.000000    
    521 O     c    0.400000 *  0.444443 *  0.791665 *   0.93635    1.000000    
    522 O     c    0.100000 *  0.944443 *  0.541665 *   0.93635    1.000000    
    523 O     c    0.400000 *  0.222223 *  0.958335 *   0.93635    1.000000    
    524 O     c    0.500000 *  0.166667 *  0.875000 *   0.93635    1.000000    
    525 O     c    0.600000 *  0.222223 *  0.458335 *   0.93635    1.000000    
    526 O     c    0.500000 *  0.277777 *  0.791665 *   0.93635    1.000000    
    527 O     c    0.200000 *  0.222223 *  0.208335 *   0.93635    1.000000    
    528 O     c    0.600000 *  0.222223 *  0.208335 *   0.93635    1.000000    
    529 O     c    0.000000 *  0.111110 *  0.291665 *   0.93635    1.000000    
    530 O     c    0.000000 *  0.555557 *  0.958335 *   0.93635    1.000000    
    531 O     c    0.800000 *  0.000000 *  0.125000 *   0.93635    1.000000    
    532 O     c    0.400000 *  0.000000 *  0.375000 *   0.93635    1.000000    
    533 O     c    0.400000 *  0.111110 *  0.541665 *   0.93635    1.000000    
    534 O     c    0.400000 *  0.444443 *  0.541665 *   0.93635    1.000000    
    535 O     c    0.600000 *  0.888890 *  0.708335 *   0.93635    1.000000    
    536 O     c    0.400000 *  0.333333 *  0.875000 *   0.93635    1.000000    
    537 O     c    0.900000 *  0.500000 *  0.125000 *   0.93635    1.000000    
    538 O     c    0.000000 *  0.777777 *  0.291665 *   0.93635    1.000000    
    539 O     c    0.400000 *  0.888890 *  0.958335 *   0.93635    1.000000    
    540 La    s    0.200000 *  0.666667 *  0.000000 *   9.94525    1.000000    
    541 La    s    0.200000 *  0.222223 *  0.333335 *   9.94525    1.000000    
    542 Ce    s    0.800000 *  0.888890 *  0.833335 *  13.85000    1.000000    
    543 Ce    s    0.500000 *  0.833333 *  0.000000 *  13.85000    1.000000    
    544 Ce    s    0.800000 *  0.777777 *  0.166665 *  13.85000    1.000000    
    545 Ce    s    0.600000 *  0.222223 *  0.833335 *  13.85000    1.000000    
    546 Ce    s    0.000000 *  0.000000 *  0.000000 *  13.85000    1.000000    
    547 Ce    s    0.000000 *  0.333333 *  0.000000 *  13.85000    1.000000    
    548 Ce    s    0.200000 *  0.222223 *  0.833335 *  13.85000    1.000000    
    549 Ce    s    0.200000 *  0.333333 *  0.000000 *  13.85000    1.000000    
    550 Ce    s    0.500000 *  0.277777 *  0.666665 *  13.85000    1.000000    
    551 Ce    s    0.600000 *  0.222223 *  0.333335 *  13.85000    1.000000    
    552 Ce    s    0.900000 *  0.611110 *  0.166665 *  13.85000    1.000000    
    553 Ce    s    0.100000 *  0.722223 *  0.833335 *  13.85000    1.000000    
    554 Ce    s    0.900000 *  0.277777 *  0.166665 *  13.85000    1.000000    
    555 Ce    s    0.800000 *  0.555557 *  0.333335 *  13.85000    1.000000    
    556 Ce    s    0.500000 *  0.500000 *  0.500000 *  13.85000    1.000000    
    557 Ce    s    0.300000 *  0.166667 *  0.000000 *  13.85000    1.000000    
    558 Ce    s    0.300000 *  0.944443 *  0.166665 *  13.85000    1.000000    
    559 Ce    s    0.800000 *  0.444443 *  0.666665 *  13.85000    1.000000    
    560 Ce    s    0.800000 *  0.000000 *  0.500000 *  13.85000    1.000000    
    561 Ce    s    0.400000 *  0.000000 *  0.500000 *  13.85000    1.000000    
    562 Ce    s    0.000000 *  0.333333 *  0.500000 *  13.85000    1.000000    
    563 Ce    s    0.200000 *  0.666667 *  0.500000 *  13.85000    1.000000    
    564 Ce    s    0.500000 *  0.277777 *  0.166665 *  13.85000    1.000000    
    565 Ce    s    0.700000 *  0.833333 *  0.000000 *  13.85000    1.000000    
    566 Ce    s    0.400000 *  0.888890 *  0.833335 *  13.85000    1.000000    
    567 Ce    s    0.900000 *  0.166667 *  0.500000 *  13.85000    1.000000    
    568 Ce    s    0.900000 *  0.277777 *  0.666665 *  13.85000    1.000000    
    569 Ce    s    0.800000 *  0.888890 *  0.333335 *  13.85000    1.000000    
    570 Ce    s    0.400000 *  0.444443 *  0.666665 *  13.85000    1.000000    
    571 Ce    s    0.100000 *  0.722223 *  0.333335 *  13.85000    1.000000    
    572 Ce    s    0.000000 *  0.555557 *  0.333335 *  13.85000    1.000000    
    573 Ce    s    0.300000 *  0.722223 *  0.833335 *  13.85000    1.000000    
    574 Ce    s    0.700000 *  0.833333 *  0.500000 *  13.85000    1.000000    
    575 Ce    s    0.700000 *  0.277777 *  0.166665 *  13.85000    1.000000    
    576 Ce    s    0.400000 *  0.666667 *  0.500000 *  13.85000    1.000000    
    577 Ce    s    0.000000 *  0.666667 *  0.500000 *  13.85000    1.000000    
    578 Ce    s    0.600000 *  0.888890 *  0.333335 *  13.85000    1.000000    
    579 Ce    s    0.200000 *  0.444443 *  0.666665 *  13.85000    1.000000    
    580 Ce    s    0.900000 *  0.388890 *  0.333335 *  13.85000    1.000000    
    581 Ce    s    0.100000 *  0.944443 *  0.666665 *  13.85000    1.000000    
    582 Ce    s    0.700000 *  0.611110 *  0.666665 *  13.85000    1.000000    
    583 Ce    s    0.500000 *  0.055557 *  0.333335 *  13.85000    1.000000    
    584 Ce    s    0.000000 *  0.555557 *  0.833335 *  13.85000    1.000000    
    585 Ce    s    0.800000 *  0.444443 *  0.166665 *  13.85000    1.000000    
    586 Ce    s    0.900000 *  0.500000 *  0.000000 *  13.85000    1.000000    
    587 Ce    s    0.600000 *  0.666667 *  0.500000 *  13.85000    1.000000    
    588 Ce    s    0.900000 *  0.722223 *  0.333335 *  13.85000    1.000000    
    589 Ce    s    0.200000 *  0.777777 *  0.166665 *  13.85000    1.000000    
    590 Ce    s    0.500000 *  0.166667 *  0.500000 *  13.85000    1.000000    
    591 Ce    s    0.900000 *  0.388890 *  0.833335 *  13.85000    1.000000    
    592 Ce    s    0.000000 *  0.222223 *  0.833335 *  13.85000    1.000000    
    593 Ce    s    0.000000 *  0.111110 *  0.166665 *  13.85000    1.000000    
    594 Ce    s    0.200000 *  0.111110 *  0.166665 *  13.85000    1.000000    
    595 Ce    s    0.000000 *  0.222223 *  0.333335 *  13.85000    1.000000    
    596 Ce    s    0.100000 *  0.166667 *  0.000000 *  13.85000    1.000000    
    597 Ce    s    0.000000 *  0.777777 *  0.166665 *  13.85000    1.000000    
    598 Ce    s    0.800000 *  0.777777 *  0.666665 *  13.85000    1.000000    
    599 Ce    s    0.900000 *  0.722223 *  0.833335 *  13.85000    1.000000    
    600 Ce    s    0.900000 *  0.500000 *  0.500000 *  13.85000    1.000000    
    601 Ce    s    0.600000 *  0.333333 *  0.000000 *  13.85000    1.000000    
    602 Ce    s    0.600000 *  0.111110 *  0.166665 *  13.85000    1.000000    
    603 Ce    s    0.100000 *  0.500000 *  0.500000 *  13.85000    1.000000    
    604 Ce    s    0.700000 *  0.166667 *  0.000000 *  13.85000    1.000000    
    605 Ce    s    0.700000 *  0.944443 *  0.166665 *  13.85000    1.000000    
    606 Ce    s    0.200000 *  0.555557 *  0.333335 *  13.85000    1.000000    
    607 Ce    s    0.500000 *  0.833333 *  0.500000 *  13.85000    1.000000    
    608 Ce    s    0.200000 *  0.333333 *  0.500000 *  13.85000    1.000000    
    609 Ce    s    0.600000 *  0.555557 *  0.833335 *  13.85000    1.000000    
    610 Ce    s    0.500000 *  0.055557 *  0.833335 *  13.85000    1.000000    
    611 Ce    s    0.300000 *  0.833333 *  0.500000 *  13.85000    1.000000    
    612 Ce    s    0.400000 *  0.777777 *  0.666665 *  13.85000    1.000000    
    613 Ce    s    0.200000 *  0.777777 *  0.666665 *  13.85000    1.000000    
    614 Ce    s    0.800000 *  0.222223 *  0.833335 *  13.85000    1.000000    
    615 Ce    s    0.400000 *  0.222223 *  0.333335 *  13.85000    1.000000    
    616 Ce    s    0.100000 *  0.944443 *  0.166665 *  13.85000    1.000000    
    617 Ce    s    0.000000 *  0.444443 *  0.166665 *  13.85000    1.000000    
    618 Ce    s    0.200000 *  0.000000 *  0.500000 *  13.85000    1.000000    
    619 Ce    s    0.200000 *  0.444443 *  0.166665 *  13.85000    1.000000    
    620 Ce    s    0.300000 *  0.944443 *  0.666665 *  13.85000    1.000000    
    621 Ce    s    0.200000 *  0.555557 *  0.833335 *  13.85000    1.000000    
    622 Ce    s    0.400000 *  0.888890 *  0.333335 *  13.85000    1.000000    
    623 Ce    s    0.100000 *  0.611110 *  0.666665 *  13.85000    1.000000    
    624 Ce    s    0.900000 *  0.944443 *  0.666665 *  13.85000    1.000000    
    625 Ce    s    0.700000 *  0.388890 *  0.333335 *  13.85000    1.000000    
    626 Ce    s    0.400000 *  0.666667 *  0.000000 *  13.85000    1.000000    
    627 Ce    s    0.500000 *  0.166667 *  0.000000 *  13.85000    1.000000    
    628 Ce    s    0.000000 *  0.000000 *  0.500000 *  13.85000    1.000000    
    629 Ce    s    0.300000 *  0.277777 *  0.166665 *  13.85000    1.000000    
    630 Ce    s    0.700000 *  0.500000 *  0.500000 *  13.85000    1.000000    
    631 Ce    s    0.500000 *  0.722223 *  0.333335 *  13.85000    1.000000    
    632 Ce    s    0.300000 *  0.388890 *  0.333335 *  13.85000    1.000000    
    633 Ce    s    0.900000 *  0.055557 *  0.333335 *  13.85000    1.000000    
    634 Ce    s    0.600000 *  0.555557 *  0.333335 *  13.85000    1.000000    
    635 Ce    s    0.100000 *  0.277777 *  0.666665 *  13.85000    1.000000    
    636 Ce    s    0.200000 *  0.888890 *  0.833335 *  13.85000    1.000000    
    637 Ce    s    0.200000 *  0.888890 *  0.333335 *  13.85000    1.000000    
    638 Ce    s    0.500000 *  0.944443 *  0.666665 *  13.85000    1.000000    
    639 Ce    s    0.500000 *  0.388890 *  0.333335 *  13.85000    1.000000    
    640 Ce    s    0.300000 *  0.166667 *  0.500000 *  13.85000    1.000000    
    641 Ce    s    0.100000 *  0.500000 *  0.000000 *  13.85000    1.000000    
    642 Ce    s    0.800000 *  0.666667 *  0.000000 *  13.85000    1.000000    
    643 Ce    s    0.500000 *  0.388890 *  0.833335 *  13.85000    1.000000    
    644 Ce    s    0.400000 *  0.555557 *  0.333335 *  13.85000    1.000000    
    645 Ce    s    0.800000 *  0.222223 *  0.333335 *  13.85000    1.000000    
    646 Ce    s    0.300000 *  0.722223 *  0.333335 *  13.85000    1.000000    
    647 Ce    s    0.600000 *  0.444443 *  0.666665 *  13.85000    1.000000    
    648 Ce    s    0.900000 *  0.611110 *  0.666665 *  13.85000    1.000000    
    649 Ce    s    0.800000 *  0.111110 *  0.666665 *  13.85000    1.000000    
    650 Ce    s    0.800000 *  0.333333 *  0.000000 *  13.85000    1.000000    
    651 Ce    s    0.100000 *  0.611110 *  0.166665 *  13.85000    1.000000    
    652 Ce    s    0.100000 *  0.388890 *  0.333335 *  13.85000    1.000000    
    653 Ce    s    0.900000 *  0.833333 *  0.000000 *  13.85000    1.000000    
    654 Ce    s    0.700000 *  0.388890 *  0.833335 *  13.85000    1.000000    
    655 Ce    s    0.600000 *  0.000000 *  0.000000 *  13.85000    1.000000    
    656 Ce    s    0.500000 *  0.500000 *  0.000000 *  13.85000    1.000000    
    657 Ce    s    0.300000 *  0.611110 *  0.166665 *  13.85000    1.000000    
    658 Ce    s    0.500000 *  0.611110 *  0.166665 *  13.85000    1.000000    
    659 Ce    s    0.300000 *  0.388890 *  0.833335 *  13.85000    1.000000    
    660 Ce    s    0.700000 *  0.944443 *  0.666665 *  13.85000    1.000000    
    661 Ce    s    0.600000 *  0.888890 *  0.833335 *  13.85000    1.000000    
    662 Ce    s    0.600000 *  0.777777 *  0.666665 *  13.85000    1.000000    
    663 Ce    s    0.600000 *  0.777777 *  0.166665 *  13.85000    1.000000    
    664 Ce    s    0.100000 *  0.277777 *  0.166665 *  13.85000    1.000000    
    665 Ce    s    0.500000 *  0.722223 *  0.833335 *  13.85000    1.000000    
    666 Ce    s    0.600000 *  0.666667 *  0.000000 *  13.85000    1.000000    
    667 Ce    s    0.900000 *  0.055557 *  0.833335 *  13.85000    1.000000    
    668 Ce    s    0.300000 *  0.500000 *  0.000000 *  13.85000    1.000000    
    669 Ce    s    0.300000 *  0.500000 *  0.500000 *  13.85000    1.000000    
    670 Ce    s    0.800000 *  0.666667 *  0.500000 *  13.85000    1.000000    
    671 Ce    s    0.400000 *  0.333333 *  0.500000 *  13.85000    1.000000    
    672 Ce    s    0.700000 *  0.722223 *  0.833335 *  13.85000    1.000000    
    673 Ce    s    0.300000 *  0.055557 *  0.833335 *  13.85000    1.000000    
    674 Ce    s    0.700000 *  0.277777 *  0.666665 *  13.85000    1.000000    
    675 Ce    s    0.700000 *  0.500000 *  0.000000 *  13.85000    1.000000    
    676 Ce    s    0.200000 *  0.000000 *  0.000000 *  13.85000    1.000000    
    677 Ce    s    0.100000 *  0.166667 *  0.500000 *  13.85000    1.000000    
    678 Ce    s    0.900000 *  0.833333 *  0.500000 *  13.85000    1.000000    
    679 Ce    s    0.800000 *  0.111110 *  0.166665 *  13.85000    1.000000    
    680 Ce    s    0.500000 *  0.611110 *  0.666665 *  13.85000    1.000000    
    681 Ce    s    0.000000 *  0.777777 *  0.666665 *  13.85000    1.000000    
    682 Ce    s    0.400000 *  0.333333 *  0.000000 *  13.85000    1.000000    
    683 Ce    s    0.100000 *  0.388890 *  0.833335 *  13.85000    1.000000    
    684 Ce    s    0.400000 *  0.111110 *  0.666665 *  13.85000    1.000000    
    685 Ce    s    0.600000 *  0.000000 *  0.500000 *  13.85000    1.000000    
    686 Ce    s    0.100000 *  0.833333 *  0.500000 *  13.85000    1.000000    
    687 Ce    s    0.100000 *  0.833333 *  0.000000 *  13.85000    1.000000    
    688 Ce    s    0.700000 *  0.055557 *  0.833335 *  13.85000    1.000000    
    689 Ce    s    0.700000 *  0.722223 *  0.333335 *  13.85000    1.000000    
    690 Ce    s    0.600000 *  0.111110 *  0.666665 *  13.85000    1.000000    
    691 Ce    s    0.700000 *  0.166667 *  0.500000 *  13.85000    1.000000    
    692 Ce    s    0.800000 *  0.333333 *  0.500000 *  13.85000    1.000000    
    693 Ce    s    0.000000 *  0.666667 *  0.000000 *  13.85000    1.000000    
    694 Ce    s    0.400000 *  0.444443 *  0.166665 *  13.85000    1.000000    
    695 Ce    s    0.400000 *  0.555557 *  0.833335 *  13.85000    1.000000    
    696 Ce    s    0.500000 *  0.944443 *  0.166665 *  13.85000    1.000000    
    697 Ce    s    0.900000 *  0.944443 *  0.166665 *  13.85000    1.000000    
    698 Ce    s    0.400000 *  0.222223 *  0.833335 *  13.85000    1.000000    
    699 Ce    s    0.000000 *  0.888890 *  0.833335 *  13.85000    1.000000    
    700 Ce    s    0.400000 *  0.000000 *  0.000000 *  13.85000    1.000000    
    701 Ce    s    0.800000 *  0.555557 *  0.833335 *  13.85000    1.000000    
    702 Ce    s    0.400000 *  0.111110 *  0.166665 *  13.85000    1.000000    
    703 Ce    s    0.900000 *  0.166667 *  0.000000 *  13.85000    1.000000    
    704 Ce    s    0.700000 *  0.611110 *  0.166665 *  13.85000    1.000000    
    705 Ce    s    0.000000 *  0.444443 *  0.666665 *  13.85000    1.000000    
    706 Ce    s    0.700000 *  0.055557 *  0.333335 *  13.85000    1.000000    
    707 Ce    s    0.300000 *  0.055557 *  0.333335 *  13.85000    1.000000    
    708 Ce    s    0.000000 *  0.888890 *  0.333335 *  13.85000    1.000000    
    709 Ce    s    0.000000 *  0.111110 *  0.666665 *  13.85000    1.000000    
    710 Ce    s    0.600000 *  0.333333 *  0.500000 *  13.85000    1.000000    
    711 Ce    s    0.200000 *  0.111110 *  0.666665 *  13.85000    1.000000    
    712 Ce    s    0.800000 *  0.000000 *  0.000000 *  13.85000    1.000000    
    713 Ce    s    0.300000 *  0.611110 *  0.666665 *  13.85000    1.000000    
    714 Ce    s    0.100000 *  0.055557 *  0.833335 *  13.85000    1.000000    
    715 Ce    s    0.600000 *  0.444443 *  0.166665 *  13.85000    1.000000    
    716 Ce    s    0.400000 *  0.777777 *  0.166665 *  13.85000    1.000000    
    717 Ce    s    0.300000 *  0.277777 *  0.666665 *  13.85000    1.000000    
    718 Ce    s    0.300000 *  0.833333 *  0.000000 *  13.85000    1.000000    
    719 Ce    s    0.100000 *  0.055557 *  0.333335 *  13.85000    1.000000    
    720 O     s    0.300000 *  0.722223 *  0.458335 *  -2.93634    1.000000    
    721 O     s    0.200000 *  0.555557 *  0.458335 *  -2.93634    1.000000    
    722 O     s    0.100000 *  0.388890 *  0.958335 *  -2.93634    1.000000    
    723 O     s    0.000000 *  0.777777 *  0.791665 *  -2.93634    1.000000    
    724 O     s    0.600000 *  0.000000 *  0.875000 *  -2.93634    1.000000    
    725 O     s    0.800000 *  0.888890 *  0.958335 *  -2.93634    1.000000    
    726 O     s    0.800000 *  0.000000 *  0.625000 *  -2.93634    1.000000    
    727 O     s    0.500000 *  0.277777 *  0.041665 *  -2.93634    1.000000    
    728 O     s    0.200000 *  0.666667 *  0.125000 *  -2.93634    1.000000    
    729 O     s    0.900000 *  0.722223 *  0.458335 *  -2.93634    1.000000    
    730 O     s    0.100000 *  0.055557 *  0.458335 *  -2.93634    1.000000    
    731 O     s    0.500000 *  0.611110 *  0.541665 *  -2.93634    1.000000    
    732 O     s    0.200000 *  0.333333 *  0.625000 *  -2.93634    1.000000    
    733 O     s    0.600000 *  0.000000 *  0.375000 *  -2.93634    1.000000    
    734 O     s    0.300000 *  0.611110 *  0.541665 *  -2.93634    1.000000    
    735 O     s    0.100000 *  0.611110 *  0.791665 *  -2.93634    1.000000    
    736 O     s    0.000000 *  0.222223 *  0.458335 *  -2.93634    1.000000    
    737 O     s    0.700000 *  0.388890 *  0.458335 *  -2.93634    1.000000    
    738 O     s    0.600000 *  0.111110 *  0.791665 *  -2.93634    1.000000    
    739 O     s    0.800000 *  0.111110 *  0.791665 *  -2.93634    1.000000    
    740 O     s    0.000000 *  0.888890 *  0.458335 *  -2.93634    1.000000    
    741 O     s    0.000000 *  0.888890 *  0.708335 *  -2.93634    1.000000    
    742 O     s    0.600000 *  0.888890 *  0.958335 *  -2.93634    1.000000    
    743 O     s    0.700000 *  0.611110 *  0.791665 *  -2.93634    1.000000    
    744 O     s    0.500000 *  0.166667 *  0.625000 *  -2.93634    1.000000    
    745 O     s    0.100000 *  0.166667 *  0.375000 *  -2.93634    1.000000    
    746 O     s    0.000000 *  0.555557 *  0.208335 *  -2.93634    1.000000    
    747 O     s    0.800000 *  0.222223 *  0.458335 *  -2.93634    1.000000    
    748 O     s    0.400000 *  0.888890 *  0.458335 *  -2.93634    1.000000    
    749 O     s    0.200000 *  0.888890 *  0.708335 *  -2.93634    1.000000    
    750 O     s    0.200000 *  0.555557 *  0.958335 *  -2.93634    1.000000    
    751 O     s    0.400000 *  0.222223 *  0.708335 *  -2.93634    1.000000    
    752 O     s    0.000000 *  0.000000 *  0.375000 *  -2.93634    1.000000    
    753 O     s    0.600000 *  0.777777 *  0.541665 *  -2.93634    1.000000    
    754 O     s    0.800000 *  0.444443 *  0.291665 *  -2.93634    1.000000    
    755 O     s    0.000000 *  0.111110 *  0.041665 *  -2.93634    1.000000    
    756 O     s    0.800000 *  0.555557 *  0.958335 *  -2.93634    1.000000    
    757 O     s    0.100000 *  0.055557 *  0.958335 *  -2.93634    1.000000    
    758 O     s    0.400000 *  0.000000 *  0.875000 *  -2.93634    1.000000    
    759 O     s    0.800000 *  0.222223 *  0.958335 *  -2.93634    1.000000    
    760 O     s    0.000000 *  0.666667 *  0.625000 *  -2.93634    1.000000    
    761 O     s    0.700000 *  0.166667 *  0.375000 *  -2.93634    1.000000    
    762 O     s    0.500000 *  0.833333 *  0.625000 *  -2.93634    1.000000    
    763 O     s    0.300000 *  0.166667 *  0.875000 *  -2.93634    1.000000    
    764 O     s    0.700000 *  0.833333 *  0.375000 *  -2.93634    1.000000    
    765 O     s    0.900000 *  0.611110 *  0.541665 *  -2.93634    1.000000    
    766 O     s    0.800000 *  0.111110 *  0.291665 *  -2.93634    1.000000    
    767 O     s    0.400000 *  0.000000 *  0.125000 *  -2.93634    1.000000    
    768 O     s    0.700000 *  0.277777 *  0.041665 *  -2.93634    1.000000    
    769 O     s    0.600000 *  0.555557 *  0.708335 *  -2.93634    1.000000    
    770 O     s    0.700000 *  0.833333 *  0.125000 *  -2.93634    1.000000    
    771 O     s    0.000000 *  0.333333 *  0.875000 *  -2.93634    1.000000    
    772 O     s    0.300000 *  0.388890 *  0.958335 *  -2.93634    1.000000    
    773 O     s    0.000000 *  0.000000 *  0.625000 *  -2.93634    1.000000    
    774 O     s    0.600000 *  0.777777 *  0.041665 *  -2.93634    1.000000    
    775 O     s    0.700000 *  0.500000 *  0.375000 *  -2.93634    1.000000    
    776 O     s    0.900000 *  0.833333 *  0.875000 *  -2.93634    1.000000    
    777 O     s    0.800000 *  0.777777 *  0.541665 *  -2.93634    1.000000    
    778 O     s    0.000000 *  0.000000 *  0.875000 *  -2.93634    1.000000    
    779 O     s    0.400000 *  0.666667 *  0.125000 *  -2.93634    1.000000    
    780 O     s    0.800000 *  0.111110 *  0.041665 *  -2.93634    1.000000    
    781 O     s    0.200000 *  0.888890 *  0.458335 *  -2.93634    1.000000    
    782 O     s    0.600000 *  0.666667 *  0.875000 *  -2.93634    1.000000    
    783 O     s    0.800000 *  0.222223 *  0.208335 *  -2.93634    1.000000    
    784 O     s    0.100000 *  0.611110 *  0.041665 *  -2.93634    1.000000    
    785 O     s    0.500000 *  0.722223 *  0.458335 *  -2.93634    1.000000    
    786 O     s    0.300000 *  0.611110 *  0.791665 *  -2.93634    1.000000    
    787 O     s    0.900000 *  0.277777 *  0.791665 *  -2.93634    1.000000    
    788 O     s    0.200000 *  0.333333 *  0.875000 *  -2.93634    1.000000    
    789 O     s    0.900000 *  0.055557 *  0.458335 *  -2.93634    1.000000    
    790 O     s    0.900000 *  0.944443 *  0.291665 *  -2.93634    1.000000    
    791 O     s    0.500000 *  0.722223 *  0.708335 *  -2.93634    1.000000    
    792 O     s    0.100000 *  0.388890 *  0.458335 *  -2.93634    1.000000    
    793 O     s    0.800000 *  0.222223 *  0.708335 *  -2.93634    1.000000    
    794 O     s    0.400000 *  0.777777 *  0.041665 *  -2.93634    1.000000    
    795 O     s    0.500000 *  0.944443 *  0.791665 *  -2.93634    1.000000    
    796 O     s    0.300000 *  0.388890 *  0.708335 *  -2.93634    1.000000    
    797 O     s    0.200000 *  0.111110 *  0.541665 *  -2.93634    1.000000    
    798 O     s    0.600000 *  0.111110 *  0.291665 *  -2.93634    1.000000    
    799 O     s    0.100000 *  0.500000 *  0.875000 *  -2.93634    1.000000    
    800 O     s    0.600000 *  0.333333 *  0.625000 *  -2.93634    1.000000    
    801 O     s    0.700000 *  0.944443 *  0.041665 *  -2.93634    1.000000    
    802 O     s    0.900000 *  0.611110 *  0.791665 *  -2.93634    1.000000    
    803 O     s    0.000000 *  0.555557 *  0.458335 *  -2.93634    1.000000    
    804 O     s    0.400000 *  0.777777 *  0.791665 *  -2.93634    1.000000    
    805 O     s    0.500000 *  0.055557 *  0.958335 *  -2.93634    1.000000    
    806 O     s    0.300000 *  0.944443 *  0.541665 *  -2.93634    1.000000    
    807 O     s    0.300000 *  0.388890 *  0.208335 *  -2.93634    1.000000    
    808 O     s    0.800000 *  0.444443 *  0.541665 *  -2.93634    1.000000    
    809 O     s    0.300000 *  0.277777 *  0.291665 *  -2.93634    1.000000    
    810 O     s    0.000000 *  0.222223 *  0.958335 *  -2.93634    1.000000    
    811 O     s    0.500000 *  0.500000 *  0.625000 *  -2.93634    1.000000    
    812 O     s    0.900000 *  0.388890 *  0.458335 *  -2.93634    1.000000    
    813 O     s    0.100000 *  0.833333 *  0.375000 *  -2.93634    1.000000    
    814 O     s    0.800000 *  0.666667 *  0.375000 *  -2.93634    1.000000    
    815 O     s    0.000000 *  0.000000 *  0.125000 *  -2.93634    1.000000    
    816 O     s    0.200000 *  0.333333 *  0.375000 *  -2.93634    1.000000    
    817 O     s    0.200000 *  0.666667 *  0.875000 *  -2.93634    1.000000    
    818 O     s    0.600000 *  0.666667 *  0.625000 *  -2.93634    1.000000    
    819 O     s    0.100000 *  0.277777 *  0.041665 *  -2.93634    1.000000    
    820 O     s    0.900000 *  0.166667 *  0.625000 *  -2.93634    1.000000    
    821 O     s    0.500000 *  0.944443 *  0.291665 *  -2.93634    1.000000    
    822 O     s    0.200000 *  0.777777 *  0.041665 *  -2.93634    1.000000    
    823 O     s    0.300000 *  0.833333 *  0.125000 *  -2.93634    1.000000    
    824 O     s    0.800000 *  0.888890 *  0.208335 *  -2.93634    1.000000    
    825 O     s    0.500000 *  0.833333 *  0.875000 *  -2.93634    1.000000    
    826 O     s    0.000000 *  0.444443 *  0.541665 *  -2.93634    1.000000    
    827 O     s    0.500000 *  0.500000 *  0.375000 *  -2.93634    1.000000    
    828 O     s    0.500000 *  0.611110 *  0.791665 *  -2.93634    1.000000    
    829 O     s    0.600000 *  0.444443 *  0.291665 *  -2.93634    1.000000    
    830 O     s    0.500000 *  0.388890 *  0.458335 *  -2.93634    1.000000    
    831 O     s    0.700000 *  0.722223 *  0.958335 *  -2.93634    1.000000    
    832 O     s    0.200000 *  0.555557 *  0.708335 *  -2.93634    1.000000    
    833 O     s    0.400000 *  0.555557 *  0.958335 *  -2.93634    1.000000    
    834 O     s    0.200000 *  0.555557 *  0.208335 *  -2.93634    1.000000    
    835 O     s    0.400000 *  0.000000 *  0.625000 *  -2.93634    1.000000    
    836 O     s    0.900000 *  0.055557 *  0.958335 *  -2.93634    1.000000    
    837 O     s    0.000000 *  0.222223 *  0.708335 *  -2.93634    1.000000    
    838 O     s    0.700000 *  0.500000 *  0.875000 *  -2.93634    1.000000    
    839 O     s    0.600000 *  0.555557 *  0.958335 *  -2.93634    1.000000    
    840 O     s    0.600000 *  0.666667 *  0.125000 *  -2.93634    1.000000    
    841 O     s    0.400000 *  0.666667 *  0.625000 *  -2.93634    1.000000    
    842 O     s    0.600000 *  0.555557 *  0.208335 *  -2.93634    1.000000    
    843 O     s    0.200000 *  0.333333 *  0.125000 *  -2.93634    1.000000    
    844 O     s    0.100000 *  0.722223 *  0.958335 *  -2.93634    1.000000    
    845 O     s    0.700000 *  0.277777 *  0.791665 *  -2.93634    1.000000    
    846 O     s    0.200000 *  0.222223 *  0.958335 *  -2.93634    1.000000    
    847 O     s    0.300000 *  0.166667 *  0.125000 *  -2.93634    1.000000    
    848 O     s    0.600000 *  0.000000 *  0.125000 *  -2.93634    1.000000    
    849 O     s    0.300000 *  0.277777 *  0.791665 *  -2.93634    1.000000    
    850 O     s    0.700000 *  0.277777 *  0.541665 *  -2.93634    1.000000    
    851 O     s    0.100000 *  0.277777 *  0.541665 *  -2.93634    1.000000    
    852 O     s    0.500000 *  0.722223 *  0.208335 *  -2.93634    1.000000    
    853 O     s    0.900000 *  0.944443 *  0.041665 *  -2.93634    1.000000    
    854 O     s    0.600000 *  0.888890 *  0.458335 *  -2.93634    1.000000    
    855 O     s    0.400000 *  0.333333 *  0.625000 *  -2.93634    1.000000    
    856 O     s    0.100000 *  0.055557 *  0.708335 *  -2.93634    1.000000    
    857 O     s    0.500000 *  0.277777 *  0.291665 *  -2.93634    1.000000    
    858 O     s    0.300000 *  0.833333 *  0.625000 *  -2.93634    1.000000    
    859 O     s    0.100000 *  0.944443 *  0.041665 *  -2.93634    1.000000    
    860 O     s    0.000000 *  0.111110 *  0.791665 *  -2.93634    1.000000    
    861 O     s    0.100000 *  0.277777 *  0.791665 *  -2.93634    1.000000    
    862 O     s    0.700000 *  0.055557 *  0.458335 *  -2.93634    1.000000    
    863 O     s    0.500000 *  0.166667 *  0.125000 *  -2.93634    1.000000    
    864 O     s    0.400000 *  0.666667 *  0.875000 *  -2.93634    1.000000    
    865 O     s    0.900000 *  0.166667 *  0.125000 *  -2.93634    1.000000    
    866 O     s    0.900000 *  0.500000 *  0.375000 *  -2.93634    1.000000    
    867 O     s    0.100000 *  0.500000 *  0.125000 *  -2.93634    1.000000    
    868 O     s    0.400000 *  0.555557 *  0.708335 *  -2.93634    1.000000    
    869 O     s    0.700000 *  0.166667 *  0.125000 *  -2.93634    1.000000    
    870 O     s    0.300000 *  0.055557 *  0.708335 *  -2.93634    1.000000    
    871 O     s    0.800000 *  0.666667 *  0.875000 *  -2.93634    1.000000    
    872 O     s    0.900000 *  0.944443 *  0.791665 *  -2.93634    1.000000    
    873 O     s    0.100000 *  0.722223 *  0.708335 *  -2.93634    1.000000    
    874 O     s    0.300000 *  0.944443 *  0.291665 *  -2.93634    1.000000    
    875 O     s    0.600000 *  0.333333 *  0.375000 *  -2.93634    1.000000    
    876 O     s    0.500000 *  0.833333 *  0.375000 *  -2.93634    1.000000    
    877 O     s    0.300000 *  0.722223 *  0.958335 *  -2.93634    1.000000    
    878 O     s    0.300000 *  0.055557 *  0.958335 *  -2.93634    1.000000    
    879 O     s    0.700000 *  0.611110 *  0.541665 *  -2.93634    1.000000    
    880 O     s    0.400000 *  0.111110 *  0.041665 *  -2.93634    1.000000    
    881 O     s    0.000000 *  0.333333 *  0.125000 *  -2.93634    1.000000    
    882 O     s    0.300000 *  0.277777 *  0.541665 *  -2.93634    1.000000    
    883 O     s    0.700000 *  0.944443 *  0.791665 *  -2.93634    1.000000    
    884 O     s    0.900000 *  0.055557 *  0.208335 *  -2.93634    1.000000    
    885 O     s    0.600000 *  0.444443 *  0.541665 *  -2.93634    1.000000    
    886 O     s    0.300000 *  0.500000 *  0.625000 *  -2.93634    1.000000    
    887 O     s    0.700000 *  0.055557 *  0.708335 *  -2.93634    1.000000    
    888 O     s    0.400000 *  0.444443 *  0.291665 *  -2.93634    1.000000    
    889 O     s    0.300000 *  0.166667 *  0.375000 *  -2.93634    1.000000    
    890 O     s    0.100000 *  0.500000 *  0.625000 *  -2.93634    1.000000    
    891 O     s    0.700000 *  0.833333 *  0.625000 *  -2.93634    1.000000    
    892 O     s    0.900000 *  0.722223 *  0.958335 *  -2.93634    1.000000    
    893 O     s    0.900000 *  0.388890 *  0.958335 *  -2.93634    1.000000    
    894 O     s    0.800000 *  0.888890 *  0.708335 *  -2.93634    1.000000    
    895 O     s    0.500000 *  0.500000 *  0.125000 *  -2.93634    1.000000    
    896 O     s    0.900000 *  0.166667 *  0.375000 *  -2.93634    1.000000    
    897 O     s    0.700000 *  0.055557 *  0.958335 *  -2.93634    1.000000    
    898 O     s    0.800000 *  0.111110 *  0.541665 *  -2.93634    1.000000    
    899 O     s    0.200000 *  0.777777 *  0.541665 *  -2.93634    1.000000    
    900 O     s    0.500000 *  0.166667 *  0.375000 *  -2.93634    1.000000    
    901 O     s    0.500000 *  0.944443 *  0.541665 *  -2.93634    1.000000    
    902 O     s    0.200000 *  0.111110 *  0.291665 *  -2.93634    1.000000    
    903 O     s    0.100000 *  0.166667 *  0.625000 *  -2.93634    1.000000    
    904 O     s    0.500000 *  0.055557 *  0.208335 *  -2.93634    1.000000    
    905 O     s    0.400000 *  0.777777 *  0.291665 *  -2.93634    1.000000    
    906 O     s    0.200000 *  0.777777 *  0.791665 *  -2.93634    1.000000    
    907 O     s    0.600000 *  0.444443 *  0.041665 *  -2.93634    1.000000    
    908 O     s    0.100000 *  0.833333 *  0.875000 *  -2.93634    1.000000    
    909 O     s    0.900000 *  0.611110 *  0.041665 *  -2.93634    1.000000    
    910 O     s    0.400000 *  0.222223 *  0.458335 *  -2.93634    1.000000    
    911 O     s    0.800000 *  0.777777 *  0.041665 *  -2.93634    1.000000    
    912 O     s    0.000000 *  0.444443 *  0.791665 *  -2.93634    1.000000    
    913 O     s    0.300000 *  0.055557 *  0.208335 *  -2.93634    1.000000    
    914 O     s    0.200000 *  0.000000 *  0.625000 *  -2.93634    1.000000    
    915 O     s    0.700000 *  0.722223 *  0.208335 *  -2.93634    1.000000    
    916 O     s    0.800000 *  0.555557 *  0.458335 *  -2.93634    1.000000    
    917 O     s    0.900000 *  0.277777 *  0.041665 *  -2.93634    1.000000    
    918 O     s    0.300000 *  0.722223 *  0.208335 *  -2.93634    1.000000    
    919 O     s    0.000000 *  0.333333 *  0.375000 *  -2.93634    1.000000    
    920 O     s    0.000000 *  0.666667 *  0.375000 *  -2.93634    1.000000    
    921 O     s    0.800000 *  0.666667 *  0.625000 *  -2.93634    1.000000    
    922 O     s    0.400000 *  0.111110 *  0.291665 *  -2.93634    1.000000    
    923 O     s    0.800000 *  0.777777 *  0.291665 *  -2.93634    1.000000    
    924 O     s    0.400000 *  0.111110 *  0.791665 *  -2.93634    1.000000    
    925 O     s    0.900000 *  0.722223 *  0.708335 *  -2.93634    1.000000    
    926 O     s    0.300000 *  0.611110 *  0.041665 *  -2.93634    1.000000    
    927 O     s    0.700000 *  0.833333 *  0.875000 *  -2.93634    1.000000    
    928 O     s    0.600000 *  0.777777 *  0.291665 *  -2.93634    1.000000    
    929 O     s    0.100000 *  0.166667 *  0.125000 *  -2.93634    1.000000    
    930 O     s    0.100000 *  0.833333 *  0.125000 *  -2.93634    1.000000    
    931 O     s    0.500000 *  0.500000 *  0.875000 *  -2.93634    1.000000    
    932 O     s    0.400000 *  0.555557 *  0.208335 *  -2.93634    1.000000    
    933 O     s    0.000000 *  0.666667 *  0.875000 *  -2.93634    1.000000    
    934 O     s    0.200000 *  0.111110 *  0.791665 *  -2.93634    1.000000    
    935 O     s    0.900000 *  0.277777 *  0.291665 *  -2.93634    1.000000    
    936 O     s    0.700000 *  0.500000 *  0.125000 *  -2.93634    1.000000    
    937 O     s    0.000000 *  0.333333 *  0.625000 *  -2.93634    1.000000    
    938 O     s    0.900000 *  0.388890 *  0.208335 *  -2.93634    1.000000    
    939 O     s    0.900000 *  0.277777 *  0.541665 *  -2.93634    1.000000    
    940 O     s    0.500000 *  0.388890 *  0.958335 *  -2.93634    1.000000    
    941 O     s    0.900000 *  0.944443 *  0.541665 *  -2.93634    1.000000    
    942 O     s    0.800000 *  0.333333 *  0.375000 *  -2.93634    1.000000    
    943 O     s    0.900000 *  0.722223 *  0.208335 *  -2.93634    1.000000    
    944 O     s    0.200000 *  0.111110 *  0.041665 *  -2.93634    1.000000    
    945 O     s    0.700000 *  0.611110 *  0.041665 *  -2.93634    1.000000    
    946 O     s    0.700000 *  0.388890 *  0.708335 *  -2.93634    1.000000    
    947 O     s    0.500000 *  0.944443 *  0.041665 *  -2.93634    1.000000    
    948 O     s    0.200000 *  0.444443 *  0.541665 *  -2.93634    1.000000    
    949 O     s    0.800000 *  0.888890 *  0.458335 *  -2.93634    1.000000    
    950 O     s    0.000000 *  0.777777 *  0.041665 *  -2.93634    1.000000    
    951 O     s    0.200000 *  0.000000 *  0.375000 *  -2.93634    1.000000    
    952 O     s    0.400000 *  0.222223 *  0.208335 *  -2.93634    1.000000    
    953 O     s    0.200000 *  0.666667 *  0.375000 *  -2.93634    1.000000    
    954 O     s    0.500000 *  0.833333 *  0.125000 *  -2.93634    1.000000    
    955 O     s    0.000000 *  0.666667 *  0.125000 *  -2.93634    1.000000    
    956 O     s    0.700000 *  0.611110 *  0.291665 *  -2.93634    1.000000    
    957 O     s    0.300000 *  0.833333 *  0.875000 *  -2.93634    1.000000    
    958 O     s    0.700000 *  0.277777 *  0.291665 *  -2.93634    1.000000    
    959 O     s    0.300000 *  0.833333 *  0.375000 *  -2.93634    1.000000    
    960 O     s    0.800000 *  0.333333 *  0.625000 *  -2.93634    1.000000    
    961 O     s    0.400000 *  0.777777 *  0.541665 *  -2.93634    1.000000    
    962 O     s    0.000000 *  0.444443 *  0.041665 *  -2.93634    1.000000    
    963 O     s    0.000000 *  0.888890 *  0.208335 *  -2.93634    1.000000    
    964 O     s    0.500000 *  0.611110 *  0.041665 *  -2.93634    1.000000    
    965 O     s    0.300000 *  0.611110 *  0.291665 *  -2.93634    1.000000    
    966 O     s    0.600000 *  0.222223 *  0.708335 *  -2.93634    1.000000    
    967 O     s    0.100000 *  0.944443 *  0.791665 *  -2.93634    1.000000    
    968 O     s    0.300000 *  0.500000 *  0.875000 *  -2.93634    1.000000    
    969 O     s    0.900000 *  0.833333 *  0.375000 *  -2.93634    1.000000    
[...]
            z       0.0089      0.0085     -2.7422
-------------------------------------------------------------------------------
  461 O     x      -2.7319      0.0080     -0.0049
            y       0.0086     -2.7238      0.0027
            z      -0.0053      0.0044     -2.7096
-------------------------------------------------------------------------------
  462 O     x      -2.7119     -0.0153      0.0096
            y      -0.0138     -2.7166     -0.0011
            z       0.0109     -0.0023     -2.7362
-------------------------------------------------------------------------------
  463 O     x      -2.7447     -0.0029      0.0023
            y      -0.0035     -2.7180      0.0073
            z       0.0017      0.0042     -2.6991
-------------------------------------------------------------------------------
  464 O     x      -2.7567      0.0234     -0.0134
            y       0.0203     -2.7107      0.0150
            z      -0.0333      0.0296     -2.6869
-------------------------------------------------------------------------------
  465 O     x      -2.7171      0.0049     -0.0030
            y       0.0058     -2.7372     -0.0060
            z      -0.0027     -0.0060     -2.7122
-------------------------------------------------------------------------------
  466 O     x      -2.7108     -0.0055      0.0056
            y      -0.0059     -2.7113      0.0057
            z       0.0053      0.0033     -2.7450
-------------------------------------------------------------------------------
  467 O     x      -2.7304     -0.0045      0.0060
            y      -0.0054     -2.7449      0.0010
            z       0.0031      0.0005     -2.6882
-------------------------------------------------------------------------------
  468 O     x      -2.7163      0.0059     -0.0016
            y       0.0039     -2.7354     -0.0075
            z      -0.0032     -0.0122     -2.7202
-------------------------------------------------------------------------------
  469 O     x      -2.6655      0.0287     -0.0275
            y       0.0074     -2.7063     -0.0036
            z      -0.0455      0.0120     -2.7760
-------------------------------------------------------------------------------
  470 O     x      -2.7281      0.0081     -0.0052
            y       0.0095     -2.7253      0.0001
            z      -0.0083     -0.0011     -2.7127
-------------------------------------------------------------------------------
  471 O     x      -2.7158      0.0005     -0.0024
            y       0.0009     -2.7208     -0.0027
            z      -0.0020     -0.0014     -2.7310
-------------------------------------------------------------------------------
  472 O     x      -2.6945      0.0460     -0.0301
            y       0.0231     -2.7260     -0.0103
            z      -0.0091     -0.0061     -2.7504
-------------------------------------------------------------------------------
  473 O     x      -2.7365      0.0005      0.0214
            y       0.0026     -2.7655     -0.0223
            z      -0.0105     -0.0095     -2.6645
-------------------------------------------------------------------------------
  474 O     x      -2.7293     -0.0015      0.0010
            y       0.0021     -2.7213      0.0018
            z       0.0028     -0.0016     -2.7146
-------------------------------------------------------------------------------
  475 O     x      -2.7290      0.0041     -0.0033
            y       0.0048     -2.7203      0.0008
            z      -0.0033      0.0014     -2.7164
-------------------------------------------------------------------------------
  476 O     x      -2.7218     -0.0474      0.0203
            y      -0.0452     -2.7596     -0.0064
            z       0.0163     -0.0062     -2.6434
-------------------------------------------------------------------------------
  477 O     x      -2.7443     -0.0031      0.0016
            y      -0.0005     -2.7261      0.0109
            z      -0.0002      0.0124     -2.6974
-------------------------------------------------------------------------------
  478 O     x      -2.7374     -0.0132      0.0075
            y      -0.0140     -2.7226      0.0051
            z       0.0066      0.0056     -2.7031
-------------------------------------------------------------------------------
  479 O     x      -2.7221      0.0064     -0.0023
            y       0.0059     -2.7367     -0.0014
            z      -0.0033     -0.0019     -2.7066
-------------------------------------------------------------------------------
  480 O     x      -2.7073      0.0146     -0.0119
            y       0.0148     -2.7341     -0.0083
            z      -0.0096     -0.0069     -2.7256
-------------------------------------------------------------------------------
  481 O     x      -2.6964     -0.0116     -0.0142
            y       0.0059     -2.7920     -0.0195
            z      -0.0331     -0.0688     -2.7086
-------------------------------------------------------------------------------
  482 O     x      -2.7060     -0.0035      0.0002
            y      -0.0020     -2.7380     -0.0102
            z       0.0012     -0.0115     -2.7150
-------------------------------------------------------------------------------
  483 O     x      -2.7395      0.0248     -0.0431
            y       0.0607     -2.7054      0.0322
            z      -0.0323      0.0250     -2.7395
-------------------------------------------------------------------------------
  484 O     x      -2.7716     -0.0230      0.0157
            y      -0.0220     -2.7097      0.0208
            z       0.0334      0.0352     -2.6775
-------------------------------------------------------------------------------
  485 O     x      -2.7072     -0.0073      0.0046
            y      -0.0074     -2.7204     -0.0013
            z       0.0063     -0.0045     -2.7381
-------------------------------------------------------------------------------
  486 O     x      -2.7178      0.0139     -0.0073
            y       0.0153     -2.7327     -0.0001
            z      -0.0069      0.0009     -2.7124
-------------------------------------------------------------------------------
  487 O     x      -2.7211      0.0106     -0.0109
            y       0.0120     -2.6985      0.0097
            z      -0.0116      0.0110     -2.7441
-------------------------------------------------------------------------------
  488 O     x      -2.7423      0.0026      0.0009
            y      -0.0001     -2.6796      0.0072
            z       0.0005      0.0331     -2.7550
-------------------------------------------------------------------------------
  489 O     x      -2.6871     -0.1055      0.2024
            y      -0.1090     -2.5569      0.1169
            z       0.2032      0.1233     -2.9096
-------------------------------------------------------------------------------
  490 O     x      -2.6667     -0.0190      0.0190
            y      -0.0468     -2.6661     -0.0122
            z       0.0123      0.0057     -2.8379
-------------------------------------------------------------------------------
  491 O     x      -2.7251     -0.0033      0.0012
            y      -0.0001     -2.7536     -0.0097
            z      -0.0019     -0.0067     -2.6878
-------------------------------------------------------------------------------
  492 O     x      -2.7374     -0.0601      0.0582
            y      -0.0210     -2.6082      0.0257
            z       0.0341      0.0237     -2.7234
-------------------------------------------------------------------------------
  493 O     x      -2.7085      0.0050     -0.0049
            y       0.0064     -2.7275     -0.0050
            z      -0.0032     -0.0038     -2.7320
-------------------------------------------------------------------------------
  494 O     x      -2.6509      0.1683      0.1249
            y       0.0503     -3.0108     -0.1997
            z       0.0854     -0.2783     -2.7294
-------------------------------------------------------------------------------
  495 O     x      -2.6985     -0.0038      0.0025
            y       0.0013     -2.7312     -0.0113
            z       0.0005     -0.0127     -2.7396
-------------------------------------------------------------------------------
  496 O     x      -2.6993     -0.0216      0.0176
            y      -0.0266     -2.7162     -0.0085
            z       0.0174     -0.0122     -2.7472
-------------------------------------------------------------------------------
  497 O     x      -2.7215      0.0015      0.0001
            y      -0.0002     -2.7563     -0.0135
            z       0.0051     -0.0140     -2.6905
-------------------------------------------------------------------------------
  498 O     x      -2.7333      0.0049     -0.0021
            y       0.0060     -2.6434      0.0221
            z      -0.0151      0.0460     -2.8055
-------------------------------------------------------------------------------
  499 O     x      -2.7629      0.0237     -0.0190
            y       0.0169     -2.7292      0.0177
            z      -0.0094      0.0197     -2.6810
-------------------------------------------------------------------------------
  500 O     x      -2.6881      0.0037     -0.0034
            y       0.0028     -2.6831     -0.0507
            z      -0.0033     -0.0020     -2.7632
-------------------------------------------------------------------------------
  501 O     x      -2.7413      0.0003      0.0026
            y       0.0006     -2.7241      0.0034
            z      -0.0016      0.0031     -2.6983
-------------------------------------------------------------------------------
  502 O     x      -2.7479     -0.0461      0.0444
            y      -0.0115     -2.6803      0.0260
            z       0.0372      0.0214     -2.7559
-------------------------------------------------------------------------------
  503 O     x      -2.7131      0.0012      0.0014
            y      -0.0003     -2.7251     -0.0047
            z      -0.0000     -0.0040     -2.7282
-------------------------------------------------------------------------------
  504 O     x      -3.0001     -0.3704      0.2601
            y      -0.3707     -2.5706      0.1480
            z       0.2507      0.1467     -2.4340
-------------------------------------------------------------------------------
  505 O     x      -2.8504     -0.1762      0.1082
            y      -0.2644     -2.7879      0.2353
            z       0.2059      0.2099     -2.7598
-------------------------------------------------------------------------------
  506 O     x      -2.7167     -0.0070      0.0040
            y      -0.0075     -2.7158      0.0007
            z       0.0067      0.0010     -2.7328
-------------------------------------------------------------------------------
  507 O     x      -2.7154      0.0258     -0.0486
            y       0.0388     -2.6787     -0.0061
            z      -0.0401      0.0292     -2.7953
-------------------------------------------------------------------------------
  508 O     x      -2.7644     -0.0280      0.0167
            y       0.0109     -2.6990     -0.0039
            z      -0.0087     -0.0096     -2.6744
-------------------------------------------------------------------------------
  509 O     x      -2.7024     -0.0353      0.0334
            y      -0.0618     -2.7206     -0.0181
            z       0.0236      0.0003     -2.7504
-------------------------------------------------------------------------------
  510 O     x      -2.7333     -0.0149      0.0088
            y      -0.0129     -2.7307      0.0050
            z       0.0102      0.0055     -2.7021
-------------------------------------------------------------------------------
  511 O     x      -2.7554     -0.0110      0.0097
            y      -0.0077     -2.7070      0.0101
            z       0.0060      0.0100     -2.7071
-------------------------------------------------------------------------------
  512 O     x      -2.7324     -0.0074      0.0059
            y      -0.0087     -2.7190      0.0074
            z       0.0060      0.0042     -2.7167
-------------------------------------------------------------------------------
  513 O     x      -2.7145      0.0159     -0.0109
            y       0.0159     -2.7039      0.0079
            z      -0.0109      0.0021     -2.7501
-------------------------------------------------------------------------------
  514 O     x      -2.7165      0.0220     -0.0339
            y       0.0220     -2.7529     -0.0240
            z      -0.0118     -0.0114     -2.7082
-------------------------------------------------------------------------------
  515 O     x      -2.7024     -0.0081      0.0035
            y      -0.0081     -2.7086      0.0053
            z       0.0070      0.0025     -2.7558
-------------------------------------------------------------------------------
  516 O     x      -2.6960      0.0195     -0.0336
            y       0.0180     -2.6575      0.0234
            z      -0.0285      0.0249     -2.7766
-------------------------------------------------------------------------------
  517 O     x      -2.7645      0.0051     -0.0032
            y       0.0052     -2.6929      0.0127
            z      -0.0023      0.0445     -2.7212
-------------------------------------------------------------------------------
  518 O     x      -2.7234      0.0051     -0.0037
            y       0.0065     -2.7210      0.0002
            z      -0.0038     -0.0001     -2.7217
-------------------------------------------------------------------------------
  519 O     x      -2.7241     -0.0055      0.0042
            y      -0.0073     -2.7288     -0.0023
            z       0.0078     -0.0040     -2.7119
-------------------------------------------------------------------------------
  520 O     x      -2.7116     -0.0163      0.0104
            y      -0.0158     -2.7311     -0.0059
            z       0.0124     -0.0082     -2.7195
-------------------------------------------------------------------------------
  521 O     x      -2.6889      0.0085     -0.0091
            y       0.0109     -2.6759      0.0053
            z      -0.0013      0.0012     -2.8087
-------------------------------------------------------------------------------
  522 O     x      -2.7065     -0.0008     -0.0007
            y      -0.0003     -2.7506     -0.0175
            z      -0.0027     -0.0177     -2.7095
-------------------------------------------------------------------------------
  523 O     x      -2.7107      0.0082     -0.0075
            y       0.0127     -2.7269     -0.0091
            z      -0.0141     -0.0117     -2.7292
-------------------------------------------------------------------------------
  524 O     x      -2.7313     -0.0034      0.0013
            y      -0.0046     -2.7161      0.0013
            z       0.0017      0.0026     -2.7182
-------------------------------------------------------------------------------
  525 O     x      -2.6938      0.0019      0.0046
            y      -0.0064     -2.7553     -0.0187
            z       0.0058     -0.0149     -2.7199
-------------------------------------------------------------------------------
  526 O     x      -2.6978      0.0015     -0.0046
            y       0.0024     -2.7208     -0.0121
            z      -0.0038     -0.0129     -2.7471
-------------------------------------------------------------------------------
  527 O     x      -3.0851     -0.0251      0.0165
            y      -0.0519     -3.0053      0.0005
            z       0.0124      0.0235     -1.9954
-------------------------------------------------------------------------------
  528 O     x      -2.7100      0.0055     -0.0083
            y       0.0078     -2.7177      0.0011
            z      -0.0067      0.0017     -2.7405
-------------------------------------------------------------------------------
  529 O     x      -2.6944     -0.0078      0.0508
            y      -0.0075     -2.7049      0.0240
            z       0.0131      0.0022     -2.7386
-------------------------------------------------------------------------------
  530 O     x      -2.6970     -0.0029      0.0450
            y      -0.0031     -2.6833      0.0333
            z       0.0049      0.0127     -2.7569
-------------------------------------------------------------------------------
  531 O     x      -2.7261     -0.0074      0.0070
            y      -0.0083     -2.7222      0.0021
            z       0.0061      0.0017     -2.7179
-------------------------------------------------------------------------------
  532 O     x      -2.6909     -0.0345      0.0313
            y      -0.0608     -2.7385     -0.0296
            z       0.0219     -0.0183     -2.7480
-------------------------------------------------------------------------------
  533 O     x      -2.7113     -0.0403      0.0198
            y      -0.0381     -2.7452     -0.0081
            z       0.0476     -0.0277     -2.7142
-------------------------------------------------------------------------------
  534 O     x      -3.0480      0.2591     -0.0595
            y       0.2472     -2.7031      0.0485
            z       0.0681     -0.0191     -2.6302
-------------------------------------------------------------------------------
  535 O     x      -2.7190      0.0026     -0.0002
            y       0.0003     -2.7370     -0.0073
            z       0.0008     -0.0063     -2.7096
-------------------------------------------------------------------------------
  536 O     x      -2.7384     -0.0076      0.0040
            y      -0.0123     -2.7128      0.0028
            z       0.0022      0.0114     -2.7168
-------------------------------------------------------------------------------
  537 O     x      -2.7204     -0.0058      0.0050
            y      -0.0076     -2.7384     -0.0022
            z       0.0081     -0.0031     -2.7064
-------------------------------------------------------------------------------
  538 O     x      -2.7845      0.0207     -0.0259
            y       0.0249     -2.7088      0.0274
            z      -0.0199      0.0193     -2.6784
-------------------------------------------------------------------------------
  539 O     x      -2.6986      0.0381     -0.0348
            y       0.0652     -2.7192     -0.0200
            z      -0.0254      0.0001     -2.7551
-------------------------------------------------------------------------------



  Time to end of optimisation =       9.0777 seconds


  Peak dynamic memory used =       9.28 MB 


  Timing analysis for GULP :

--------------------------------------------------------------------------------
  Task / Subroutine                                          Time (Seconds)
--------------------------------------------------------------------------------
  Calculation of reciprocal space energy and derivatives          0.3837
  Calculation of real space energy and derivatives                1.9187
  Calculation and manipulation of Hessian matrix                  0.0016
  Calculation of matrix inversion                                 5.4919
  Global summation overhead                                       0.0708
--------------------------------------------------------------------------------
  Total CPU time                                                  9.0778
--------------------------------------------------------------------------------


  Job Finished at 16:21.11 26th June       2024                               

KLMC_FINALIZE> start: 20240626 162102.361 end: 20240626 162111.451 elapsed_time:   9.08920648 cpu_count:  128 task_id:    1 worker_id:    1 io_path: /mnt/lustre/a2fs-work2/work/e05/e05/wkjee/Software/gulpklmc/klmc3_tf_interface.update.12092023/KLMC3-libgulp-6.1.2-memoryfix/Src/_build_libgulp/sample3                                                                                                         
