********************************************************************************
*                       GENERAL UTILITY LATTICE PROGRAM                        *
*                                 Julian Gale                                  *
*                       Curtin Institute for Computation                       *
*                    School of Molecular and Life Sciences                     *
*                    Curtin University, Western Australia                      *
********************************************************************************
* Version = 6.1.2 * Last modified =   3rd November 2022                        *
********************************************************************************
*  optimise     - perform optimisation run                                     *
********************************************************************************

  Job Started  at 16:20.59 26th June       2024                               

  Number of CPUs =   128

  Host name      = nid001986                               


  Total number of configurations input =      1

********************************************************************************
*  Input for Configuration =   1 : CeO2                                        *
********************************************************************************

  Formula = TcMn23LiO48                                                 

  Number of irreducible atoms/shells =     122


  Total number atoms/shells =     122

  Dimensionality = 3               :  Bulk   



  Cartesian lattice vectors (Angstroms) :

        8.872900    0.000000    0.000000
        0.000000    9.432400    0.000000
        0.000000    0.000000    8.565900

  Cell parameters (Angstroms/Degrees):

  a =       8.8729    alpha =  90.0000
  b =       9.4324    beta  =  90.0000
  c =       8.5659    gamma =  90.0000

  Initial cell volume =         716.903627 Angs**3

  Temperature of configuration =   0.00     K 

  Pressure of configuration =         0.000 GPa 

  Fractional coordinates of asymmetric unit :

--------------------------------------------------------------------------------
   No.  Atomic       x           y          z         Charge      Occupancy
        Label      (Frac)      (Frac)     (Frac)        (e)         (Frac)  
--------------------------------------------------------------------------------
      1 Tc    c    0.120300 *  0.006500 *  0.083330 *   1.97100    1.000000    
      2 Mn    c    0.337390 *  0.256500 *  0.250000 *   4.00000    1.000000    
      3 Mn    c    0.620300 *  0.243500 *  0.083330 *   4.00000    1.000000    
      4 Mn    c    0.837390 *  0.493500 *  0.250000 *   4.00000    1.000000    
      5 Mn    c    0.120300 *  0.506500 *  0.083330 *   4.00000    1.000000    
      6 Mn    c    0.337390 *  0.756500 *  0.250000 *   4.00000    1.000000    
      7 Mn    c    0.620300 *  0.743500 *  0.083330 *   4.00000    1.000000    
      8 Mn    c    0.837390 *  0.993500 *  0.250000 *   4.00000    1.000000    
      9 Mn    c    0.120300 *  0.006500 *  0.416670 *   4.00000    1.000000    
     10 Mn    c    0.337390 *  0.256500 *  0.583330 *   4.00000    1.000000    
     11 Mn    c    0.620300 *  0.243500 *  0.416670 *   4.00000    1.000000    
     12 Mn    c    0.837390 *  0.493500 *  0.583330 *   4.00000    1.000000    
     13 Mn    c    0.120300 *  0.506500 *  0.416670 *   4.00000    1.000000    
     14 Mn    c    0.337390 *  0.756500 *  0.583330 *   4.00000    1.000000    
     15 Mn    c    0.620300 *  0.743500 *  0.416670 *   4.00000    1.000000    
     16 Mn    c    0.837390 *  0.993500 *  0.583330 *   4.00000    1.000000    
     17 Mn    c    0.120300 *  0.006500 *  0.750000 *   4.00000    1.000000    
     18 Mn    c    0.337390 *  0.256500 *  0.916670 *   4.00000    1.000000    
     19 Mn    c    0.620300 *  0.243500 *  0.750000 *   4.00000    1.000000    
     20 Mn    c    0.837390 *  0.493500 *  0.916670 *   4.00000    1.000000    
     21 Mn    c    0.120300 *  0.506500 *  0.750000 *   4.00000    1.000000    
     22 Mn    c    0.337390 *  0.756500 *  0.916670 *   4.00000    1.000000    
     23 Mn    c    0.620300 *  0.743500 *  0.750000 *   4.00000    1.000000    
     24 Mn    c    0.837390 *  0.993500 *  0.916670 *   4.00000    1.000000    
     25 Li    c    0.000000 *  0.000000 *  0.000000 *   1.00000    1.000000    
     26 O     c    0.025370 *  0.099950 *  0.250000 *   0.51300    1.000000    
     27 O     c    0.432320 *  0.349950 *  0.083330 *   0.51300    1.000000    
     28 O     c    0.525370 *  0.150050 *  0.250000 *   0.51300    1.000000    
     29 O     c    0.932320 *  0.400050 *  0.083330 *   0.51300    1.000000    
     30 O     c    0.251790 *  0.155950 *  0.083330 *   0.51300    1.000000    
     31 O     c    0.205900 *  0.405950 *  0.250000 *   0.51300    1.000000    
     32 O     c    0.751790 *  0.094050 *  0.083330 *   0.51300    1.000000    
     33 O     c    0.705900 *  0.344050 *  0.250000 *   0.51300    1.000000    
     34 O     c    0.025370 *  0.599950 *  0.250000 *   0.51300    1.000000    
     35 O     c    0.432320 *  0.849950 *  0.083330 *   0.51300    1.000000    
     36 O     c    0.525370 *  0.650050 *  0.250000 *   0.51300    1.000000    
     37 O     c    0.932320 *  0.900050 *  0.083330 *   0.51300    1.000000    
     38 O     c    0.251790 *  0.655950 *  0.083330 *   0.51300    1.000000    
     39 O     c    0.205900 *  0.905950 *  0.250000 *   0.51300    1.000000    
     40 O     c    0.751790 *  0.594050 *  0.083330 *   0.51300    1.000000    
     41 O     c    0.705900 *  0.844050 *  0.250000 *   0.51300    1.000000    
     42 O     c    0.025370 *  0.099950 *  0.583330 *   0.51300    1.000000    
     43 O     c    0.432320 *  0.349950 *  0.416670 *   0.51300    1.000000    
     44 O     c    0.525370 *  0.150050 *  0.583330 *   0.51300    1.000000    
     45 O     c    0.932320 *  0.400050 *  0.416670 *   0.51300    1.000000    
     46 O     c    0.251790 *  0.155950 *  0.416670 *   0.51300    1.000000    
     47 O     c    0.205900 *  0.405950 *  0.583330 *   0.51300    1.000000    
     48 O     c    0.751790 *  0.094050 *  0.416670 *   0.51300    1.000000    
     49 O     c    0.705900 *  0.344050 *  0.583330 *   0.51300    1.000000    
     50 O     c    0.025370 *  0.599950 *  0.583330 *   0.51300    1.000000    
     51 O     c    0.432320 *  0.849950 *  0.416670 *   0.51300    1.000000    
     52 O     c    0.525370 *  0.650050 *  0.583330 *   0.51300    1.000000    
     53 O     c    0.932320 *  0.900050 *  0.416670 *   0.51300    1.000000    
     54 O     c    0.251790 *  0.655950 *  0.416670 *   0.51300    1.000000    
     55 O     c    0.205900 *  0.905950 *  0.583330 *   0.51300    1.000000    
     56 O     c    0.751790 *  0.594050 *  0.416670 *   0.51300    1.000000    
     57 O     c    0.705900 *  0.844050 *  0.583330 *   0.51300    1.000000    
     58 O     c    0.025370 *  0.099950 *  0.916670 *   0.51300    1.000000    
     59 O     c    0.432320 *  0.349950 *  0.750000 *   0.51300    1.000000    
     60 O     c    0.525370 *  0.150050 *  0.916670 *   0.51300    1.000000    
     61 O     c    0.932320 *  0.400050 *  0.750000 *   0.51300    1.000000    
     62 O     c    0.251790 *  0.155950 *  0.750000 *   0.51300    1.000000    
     63 O     c    0.205900 *  0.405950 *  0.916670 *   0.51300    1.000000    
     64 O     c    0.751790 *  0.094050 *  0.750000 *   0.51300    1.000000    
     65 O     c    0.705900 *  0.344050 *  0.916670 *   0.51300    1.000000    
     66 O     c    0.025370 *  0.599950 *  0.916670 *   0.51300    1.000000    
     67 O     c    0.432320 *  0.849950 *  0.750000 *   0.51300    1.000000    
     68 O     c    0.525370 *  0.650050 *  0.916670 *   0.51300    1.000000    
     69 O     c    0.932320 *  0.900050 *  0.750000 *   0.51300    1.000000    
     70 O     c    0.251790 *  0.655950 *  0.750000 *   0.51300    1.000000    
     71 O     c    0.205900 *  0.905950 *  0.916670 *   0.51300    1.000000    
     72 O     c    0.751790 *  0.594050 *  0.750000 *   0.51300    1.000000    
     73 O     c    0.705900 *  0.844050 *  0.916670 *   0.51300    1.000000    
     74 Tc    s    0.120300 *  0.006500 *  0.083330 *   1.02900    1.000000    
     75 O     s    0.025370 *  0.099950 *  0.250000 *  -2.51300    1.000000    
     76 O     s    0.432320 *  0.349950 *  0.083330 *  -2.51300    1.000000    
     77 O     s    0.525370 *  0.150050 *  0.250000 *  -2.51300    1.000000    
     78 O     s    0.932320 *  0.400050 *  0.083330 *  -2.51300    1.000000    
     79 O     s    0.251790 *  0.155950 *  0.083330 *  -2.51300    1.000000    
     80 O     s    0.205900 *  0.405950 *  0.250000 *  -2.51300    1.000000    
     81 O     s    0.751790 *  0.094050 *  0.083330 *  -2.51300    1.000000    
     82 O     s    0.705900 *  0.344050 *  0.250000 *  -2.51300    1.000000    
     83 O     s    0.025370 *  0.599950 *  0.250000 *  -2.51300    1.000000    
     84 O     s    0.432320 *  0.849950 *  0.083330 *  -2.51300    1.000000    
     85 O     s    0.525370 *  0.650050 *  0.250000 *  -2.51300    1.000000    
     86 O     s    0.932320 *  0.900050 *  0.083330 *  -2.51300    1.000000    
     87 O     s    0.251790 *  0.655950 *  0.083330 *  -2.51300    1.000000    
     88 O     s    0.205900 *  0.905950 *  0.250000 *  -2.51300    1.000000    
     89 O     s    0.751790 *  0.594050 *  0.083330 *  -2.51300    1.000000    
     90 O     s    0.705900 *  0.844050 *  0.250000 *  -2.51300    1.000000    
     91 O     s    0.025370 *  0.099950 *  0.583330 *  -2.51300    1.000000    
     92 O     s    0.432320 *  0.349950 *  0.416670 *  -2.51300    1.000000    
     93 O     s    0.525370 *  0.150050 *  0.583330 *  -2.51300    1.000000    
     94 O     s    0.932320 *  0.400050 *  0.416670 *  -2.51300    1.000000    
     95 O     s    0.251790 *  0.155950 *  0.416670 *  -2.51300    1.000000    
     96 O     s    0.205900 *  0.405950 *  0.583330 *  -2.51300    1.000000    
     97 O     s    0.751790 *  0.094050 *  0.416670 *  -2.51300    1.000000    
     98 O     s    0.705900 *  0.344050 *  0.583330 *  -2.51300    1.000000    
     99 O     s    0.025370 *  0.599950 *  0.583330 *  -2.51300    1.000000    
    100 O     s    0.432320 *  0.849950 *  0.416670 *  -2.51300    1.000000    
    101 O     s    0.525370 *  0.650050 *  0.583330 *  -2.51300    1.000000    
    102 O     s    0.932320 *  0.900050 *  0.416670 *  -2.51300    1.000000    
    103 O     s    0.251790 *  0.655950 *  0.416670 *  -2.51300    1.000000    
    104 O     s    0.205900 *  0.905950 *  0.583330 *  -2.51300    1.000000    
    105 O     s    0.751790 *  0.594050 *  0.416670 *  -2.51300    1.000000    
    106 O     s    0.705900 *  0.844050 *  0.583330 *  -2.51300    1.000000    
    107 O     s    0.025370 *  0.099950 *  0.916670 *  -2.51300    1.000000    
    108 O     s    0.432320 *  0.349950 *  0.750000 *  -2.51300    1.000000    
    109 O     s    0.525370 *  0.150050 *  0.916670 *  -2.51300    1.000000    
    110 O     s    0.932320 *  0.400050 *  0.750000 *  -2.51300    1.000000    
    111 O     s    0.251790 *  0.155950 *  0.750000 *  -2.51300    1.000000    
    112 O     s    0.205900 *  0.405950 *  0.916670 *  -2.51300    1.000000    
    113 O     s    0.751790 *  0.094050 *  0.750000 *  -2.51300    1.000000    
    114 O     s    0.705900 *  0.344050 *  0.916670 *  -2.51300    1.000000    
    115 O     s    0.025370 *  0.599950 *  0.916670 *  -2.51300    1.000000    
    116 O     s    0.432320 *  0.849950 *  0.750000 *  -2.51300    1.000000    
    117 O     s    0.525370 *  0.650050 *  0.916670 *  -2.51300    1.000000    
    118 O     s    0.932320 *  0.900050 *  0.750000 *  -2.51300    1.000000    
    119 O     s    0.251790 *  0.655950 *  0.750000 *  -2.51300    1.000000    
    120 O     s    0.205900 *  0.905950 *  0.916670 *  -2.51300    1.000000    
    121 O     s    0.751790 *  0.594050 *  0.750000 *  -2.51300    1.000000    
    122 O     s    0.705900 *  0.844050 *  0.916670 *  -2.51300    1.000000    
--------------------------------------------------------------------------------



********************************************************************************
*  General input information                                                   *
********************************************************************************

  Species output for all configurations : 

--------------------------------------------------------------------------------
  Species    Type    Atomic    Atomic    Charge       Radii (Angs)     Library
                     Number     Mass       (e)     Cova   Ionic  VDW   Symbol
--------------------------------------------------------------------------------
    Tc       Core       43      98.00   1.971000   1.350  0.000  2.010          
    Tc       Shell      43       0.00   1.029000   1.350  0.000  0.000          
    Mn       Core       25      54.94   4.000000   1.350  0.000  2.010          
    O        Core        8      16.00   0.513000   0.730  0.000  1.360          
    O        Shell       8       0.00  -2.513000   0.730  0.000  0.000          
    Li       Core        3       6.94   1.000000   0.680  0.000  1.800          
--------------------------------------------------------------------------------


  Lattice summation method               =    Ewald          (3-D)
                                         =    Parry          (2-D)
                                         =    Saunders et al (1-D)
  Accuracy factor for lattice sums       =   10.000


  Analytic derivatives to be used

  Time limit = Infinity

  Maximum range for interatomic potentials =    100000.000000 Angstroms

  General interatomic potentials :

--------------------------------------------------------------------------------
Atom  Types   Potential      Parameter       Value         Units   Cutoffs(Ang)
  1     2                                                            Min /  Max 
--------------------------------------------------------------------------------
Mn   c O    s Buckingham    Buckingham A     3087.8260    eV        0.000 25.000
                            Buckingham rho  0.26420000    Ang       
                            Buckingham C     0.0000000    eV*Ang^6  
--------------------------------------------------------------------------------
Li   c O    s Buckingham    Buckingham A     479.83700    eV        0.000 25.000
                            Buckingham rho  0.30000000    Ang       
                            Buckingham C     0.0000000    eV*Ang^6  
--------------------------------------------------------------------------------
O    s Tc   s Buckingham    Buckingham A     1686.1250    eV        0.000 25.000
                            Buckingham rho  0.29620000    Ang       
                            Buckingham C     0.0000000    eV*Ang^6  
--------------------------------------------------------------------------------
O    s O    s Buckingham    Buckingham A     22.410000    eV        0.000 25.000
                            Buckingham rho  0.69370000    Ang       
                            Buckingham C     32.320000    eV*Ang^6  
--------------------------------------------------------------------------------
O    c O    s Spring (c-s)  Spring k 2       20.530000    eV*Ang^-2 0.000  0.800
                            Spring k 4       0.0000000    eV*Ang^-4 
--------------------------------------------------------------------------------
Tc   c Tc   s Spring (c-s)  Spring k 2       148.00000    eV*Ang^-2 0.000  0.800
                            Spring k 4       0.0000000    eV*Ang^-4 
--------------------------------------------------------------------------------

********************************************************************************
*  Output for configuration   1 : CeO2                                         *
********************************************************************************


  Components of energy : 

--------------------------------------------------------------------------------
  Interatomic potentials     =         510.76672936 eV    
  Monopole - monopole (real) =       -2068.72268892 eV    
  Monopole - monopole (recip)=       -1367.74720074 eV    
  Monopole - monopole (total)=       -3436.46988966 eV    
--------------------------------------------------------------------------------
  Total lattice energy       =       -2925.70316031 eV    
--------------------------------------------------------------------------------
  Total lattice energy       =         -282285.6315 kJ/(mole unit cells)
--------------------------------------------------------------------------------


  Number of variables =      369

  Maximum number of calculations  =       1000000
  Maximum Hessian update interval =            10
  Maximum step size               =   1.000000000
  Maximum parameter tolerance     =   0.000000010
  Maximum function  tolerance     =   0.000000010
  Maximum gradient  tolerance     =   0.000000010
  Maximum gradient  component     =   0.010000000

  Symmetry not applied to optimisation

  Cell parameters to be optimised using strains

  Newton-Raphson optimiser to be used

  BFGS hessian update to be used

  General 2-D hessian to be used

  Start of bulk optimisation :

  Cycle:      0 Energy:     -2925.703160  Gnorm:      3.149436  CPU:    0.137
  ** Hessian calculated **
  Cycle:      1 Energy:     -2992.615862  Gnorm:      1.037391  CPU:    0.235
  ** Hessian calculated **
  Cycle:      2 Energy:     -3002.116812  Gnorm:      0.635553  CPU:    0.336
  Cycle:      3 Energy:     -3008.126098  Gnorm:      0.519984  CPU:    0.345
  Cycle:      4 Energy:     -3012.524722  Gnorm:      0.584548  CPU:    0.353
  Cycle:      5 Energy:     -3016.403235  Gnorm:      0.359442  CPU:    0.362
  Cycle:      6 Energy:     -3019.277809  Gnorm:      0.364547  CPU:    0.369
  Cycle:      7 Energy:     -3020.877883  Gnorm:      0.310586  CPU:    0.376
  Cycle:      8 Energy:     -3022.019427  Gnorm:      0.245751  CPU:    0.383
  Cycle:      9 Energy:     -3022.471338  Gnorm:      0.172630  CPU:    0.391
  Cycle:     10 Energy:     -3022.811625  Gnorm:      0.129998  CPU:    0.399
  Cycle:     11 Energy:     -3023.062914  Gnorm:      0.103649  CPU:    0.408
  ** Hessian calculated **
  Cycle:     12 Energy:     -3023.170213  Gnorm:      0.069705  CPU:    0.506
  Cycle:     13 Energy:     -3023.247993  Gnorm:      0.070530  CPU:    0.515
  Cycle:     14 Energy:     -3023.304332  Gnorm:      0.066959  CPU:    0.522
  Cycle:     15 Energy:     -3023.364180  Gnorm:      0.056613  CPU:    0.531
  Cycle:     16 Energy:     -3023.400484  Gnorm:      0.047496  CPU:    0.538
  Cycle:     17 Energy:     -3023.428830  Gnorm:      0.039445  CPU:    0.545
  Cycle:     18 Energy:     -3023.455238  Gnorm:      0.036999  CPU:    0.554
  Cycle:     19 Energy:     -3023.473909  Gnorm:      0.030416  CPU:    0.561
  Cycle:     20 Energy:     -3023.483677  Gnorm:      0.024814  CPU:    0.568
  Cycle:     21 Energy:     -3023.490416  Gnorm:      0.021885  CPU:    0.575
  ** Hessian calculated **
  Cycle:     22 Energy:     -3023.493881  Gnorm:      0.016574  CPU:    0.673
  Cycle:     23 Energy:     -3023.497694  Gnorm:      0.017353  CPU:    0.682
  Cycle:     24 Energy:     -3023.502014  Gnorm:      0.017909  CPU:    0.690
  Cycle:     25 Energy:     -3023.506437  Gnorm:      0.015743  CPU:    0.699
  Cycle:     26 Energy:     -3023.510158  Gnorm:      0.015191  CPU:    0.707
  Cycle:     27 Energy:     -3023.513152  Gnorm:      0.015448  CPU:    0.715
  Cycle:     28 Energy:     -3023.516043  Gnorm:      0.013488  CPU:    0.722
  Cycle:     29 Energy:     -3023.518064  Gnorm:      0.011643  CPU:    0.729
  Cycle:     30 Energy:     -3023.519641  Gnorm:      0.009394  CPU:    0.736
  Cycle:     31 Energy:     -3023.520993  Gnorm:      0.009273  CPU:    0.743
  ** Hessian calculated **
  Cycle:     32 Energy:     -3023.521787  Gnorm:      0.006405  CPU:    0.843
  Cycle:     33 Energy:     -3023.522392  Gnorm:      0.006444  CPU:    0.854
  Cycle:     34 Energy:     -3023.522917  Gnorm:      0.006499  CPU:    0.863
  Cycle:     35 Energy:     -3023.523447  Gnorm:      0.005748  CPU:    0.874
  Cycle:     36 Energy:     -3023.523815  Gnorm:      0.004813  CPU:    0.883
  Cycle:     37 Energy:     -3023.524117  Gnorm:      0.004082  CPU:    0.894
  Cycle:     38 Energy:     -3023.524399  Gnorm:      0.004138  CPU:    0.905
  Cycle:     39 Energy:     -3023.524620  Gnorm:      0.003572  CPU:    0.914
  Cycle:     40 Energy:     -3023.524772  Gnorm:      0.003127  CPU:    0.922
  Cycle:     41 Energy:     -3023.524902  Gnorm:      0.003625  CPU:    0.933
  ** Hessian calculated **
  Cycle:     42 Energy:     -3023.525002  Gnorm:      0.002579  CPU:    1.034
  Cycle:     43 Energy:     -3023.525099  Gnorm:      0.002660  CPU:    1.042
  Cycle:     44 Energy:     -3023.525205  Gnorm:      0.002749  CPU:    1.051
  Cycle:     45 Energy:     -3023.525315  Gnorm:      0.002408  CPU:    1.058
  Cycle:     46 Energy:     -3023.525411  Gnorm:      0.002391  CPU:    1.067
  Cycle:     47 Energy:     -3023.525495  Gnorm:      0.002498  CPU:    1.075
  Cycle:     48 Energy:     -3023.525580  Gnorm:      0.002364  CPU:    1.084
  Cycle:     49 Energy:     -3023.525646  Gnorm:      0.002114  CPU:    1.091
  Cycle:     50 Energy:     -3023.525706  Gnorm:      0.001893  CPU:    1.099
  Cycle:     51 Energy:     -3023.525767  Gnorm:      0.002206  CPU:    1.108
  ** Hessian calculated **
  Cycle:     52 Energy:     -3023.525812  Gnorm:      0.001490  CPU:    1.206
  Cycle:     53 Energy:     -3023.525846  Gnorm:      0.001483  CPU:    1.213
  Cycle:     54 Energy:     -3023.525876  Gnorm:      0.001500  CPU:    1.220
  Cycle:     55 Energy:     -3023.525906  Gnorm:      0.001333  CPU:    1.229
  Cycle:     56 Energy:     -3023.525928  Gnorm:      0.001178  CPU:    1.236
  Cycle:     57 Energy:     -3023.525948  Gnorm:      0.001013  CPU:    1.244
  Cycle:     58 Energy:     -3023.525966  Gnorm:      0.001068  CPU:    1.253
  Cycle:     59 Energy:     -3023.525982  Gnorm:      0.000939  CPU:    1.261
  Cycle:     60 Energy:     -3023.525993  Gnorm:      0.000815  CPU:    1.268
  Cycle:     61 Energy:     -3023.526003  Gnorm:      0.001020  CPU:    1.276
  ** Hessian calculated **
  Cycle:     62 Energy:     -3023.526012  Gnorm:      0.000704  CPU:    1.373
  Cycle:     63 Energy:     -3023.526019  Gnorm:      0.000729  CPU:    1.380
  Cycle:     64 Energy:     -3023.526028  Gnorm:      0.000778  CPU:    1.387
  Cycle:     65 Energy:     -3023.526037  Gnorm:      0.000669  CPU:    1.396
  Cycle:     66 Energy:     -3023.526045  Gnorm:      0.000662  CPU:    1.405
  Cycle:     67 Energy:     -3023.526053  Gnorm:      0.000665  CPU:    1.413
  Cycle:     68 Energy:     -3023.526060  Gnorm:      0.000664  CPU:    1.422
  Cycle:     69 Energy:     -3023.526065  Gnorm:      0.000550  CPU:    1.429
  Cycle:     70 Energy:     -3023.526071  Gnorm:      0.000575  CPU:    1.437
  Cycle:     71 Energy:     -3023.526076  Gnorm:      0.000677  CPU:    1.446
  ** Hessian calculated **
  Cycle:     72 Energy:     -3023.526080  Gnorm:      0.000486  CPU:    1.544
  Cycle:     73 Energy:     -3023.526084  Gnorm:      0.000464  CPU:    1.551
  Cycle:     74 Energy:     -3023.526086  Gnorm:      0.000445  CPU:    1.558
  Cycle:     75 Energy:     -3023.526089  Gnorm:      0.000405  CPU:    1.565
  Cycle:     76 Energy:     -3023.526092  Gnorm:      0.000346  CPU:    1.572
  Cycle:     77 Energy:     -3023.526093  Gnorm:      0.000229  CPU:    1.579
  Cycle:     78 Energy:     -3023.526095  Gnorm:      0.000347  CPU:    1.588
  Cycle:     79 Energy:     -3023.526096  Gnorm:      0.000294  CPU:    1.595
  Cycle:     80 Energy:     -3023.526097  Gnorm:      0.000231  CPU:    1.602
  Cycle:     81 Energy:     -3023.526098  Gnorm:      0.000326  CPU:    1.609
  ** Hessian calculated **
  Cycle:     82 Energy:     -3023.526100  Gnorm:      0.000232  CPU:    1.706
  Cycle:     83 Energy:     -3023.526100  Gnorm:      0.000236  CPU:    1.714
  Cycle:     84 Energy:     -3023.526102  Gnorm:      0.000261  CPU:    1.721
  Cycle:     85 Energy:     -3023.526102  Gnorm:      0.000208  CPU:    1.728
  Cycle:     86 Energy:     -3023.526103  Gnorm:      0.000215  CPU:    1.735
  Cycle:     87 Energy:     -3023.526104  Gnorm:      0.000158  CPU:    1.742
  Cycle:     88 Energy:     -3023.526105  Gnorm:      0.000227  CPU:    1.749
  Cycle:     89 Energy:     -3023.526106  Gnorm:      0.000206  CPU:    1.756
  Cycle:     90 Energy:     -3023.526106  Gnorm:      0.000217  CPU:    1.763
  Cycle:     91 Energy:     -3023.526107  Gnorm:      0.000246  CPU:    1.771
  ** Hessian calculated **
  Cycle:     92 Energy:     -3023.526108  Gnorm:      0.000167  CPU:    1.868
  Cycle:     93 Energy:     -3023.526108  Gnorm:      0.000177  CPU:    1.875
  Cycle:     94 Energy:     -3023.526108  Gnorm:      0.000146  CPU:    1.882
  Cycle:     95 Energy:     -3023.526109  Gnorm:      0.000138  CPU:    1.889
  Cycle:     96 Energy:     -3023.526109  Gnorm:      0.000087  CPU:    1.896
  Cycle:     97 Energy:     -3023.526109  Gnorm:      0.000081  CPU:    1.903
  Cycle:     98 Energy:     -3023.526109  Gnorm:      0.000088  CPU:    1.910
  Cycle:     99 Energy:     -3023.526110  Gnorm:      0.000077  CPU:    1.917
  Cycle:    100 Energy:     -3023.526110  Gnorm:      0.000064  CPU:    1.925
  Cycle:    101 Energy:     -3023.526110  Gnorm:      0.000109  CPU:    1.932
  ** Hessian calculated **
  Cycle:    102 Energy:     -3023.526110  Gnorm:      0.000078  CPU:    2.029
  Cycle:    103 Energy:     -3023.526110  Gnorm:      0.000083  CPU:    2.036
  Cycle:    104 Energy:     -3023.526110  Gnorm:      0.000089  CPU:    2.043
  Cycle:    105 Energy:     -3023.526111  Gnorm:      0.000079  CPU:    2.050
  Cycle:    106 Energy:     -3023.526111  Gnorm:      0.000092  CPU:    2.057
  Cycle:    107 Energy:     -3023.526111  Gnorm:      0.000078  CPU:    2.064
  Cycle:    108 Energy:     -3023.526111  Gnorm:      0.000059  CPU:    2.072
  Cycle:    109 Energy:     -3023.526111  Gnorm:      0.000079  CPU:    2.079
  Cycle:    110 Energy:     -3023.526111  Gnorm:      0.000081  CPU:    2.086
  Cycle:    111 Energy:     -3023.526111  Gnorm:      0.000090  CPU:    2.093
  ** Hessian calculated **
  Cycle:    112 Energy:     -3023.526112  Gnorm:      0.000070  CPU:    2.190
  Cycle:    113 Energy:     -3023.526112  Gnorm:      0.000040  CPU:    2.197
  Cycle:    114 Energy:     -3023.526112  Gnorm:      0.000045  CPU:    2.204
  Cycle:    115 Energy:     -3023.526112  Gnorm:      0.000034  CPU:    2.211
  Cycle:    116 Energy:     -3023.526112  Gnorm:      0.000027  CPU:    2.218
  Cycle:    117 Energy:     -3023.526111  Gnorm:      0.000039  CPU:    2.230
  ** Hessian calculated **
  Cycle:    118 Energy:     -3023.526112  Gnorm:      0.000023  CPU:    2.327
  Cycle:    119 Energy:     -3023.526112  Gnorm:      0.000038  CPU:    2.334
  Cycle:    120 Energy:     -3023.526112  Gnorm:      0.000034  CPU:    2.341
  Cycle:    121 Energy:     -3023.526112  Gnorm:      0.000029  CPU:    2.348
  Cycle:    122 Energy:     -3023.526112  Gnorm:      0.000028  CPU:    2.356
  Cycle:    123 Energy:     -3023.526112  Gnorm:      0.000028  CPU:    2.363
  Cycle:    124 Energy:     -3023.526112  Gnorm:      0.000028  CPU:    2.370
  Cycle:    125 Energy:     -3023.526112  Gnorm:      0.000057  CPU:    2.381
  ** Hessian calculated **
  Cycle:    126 Energy:     -3023.526112  Gnorm:      0.000064  CPU:    2.482
  ** Hessian calculated **


  **** Optimisation achieved ****


  Final energy =   -3023.52611164 eV      
  Final Gnorm  =       0.00006731

  Components of energy : 

--------------------------------------------------------------------------------
  Interatomic potentials     =         617.36069288 eV    
  Monopole - monopole (real) =       -1993.46453538 eV    
  Monopole - monopole (recip)=       -1647.42226914 eV    
  Monopole - monopole (total)=       -3640.88680452 eV    
--------------------------------------------------------------------------------
  Total lattice energy       =       -3023.52611164 eV    
--------------------------------------------------------------------------------
  Total lattice energy       =         -291724.0509 kJ/(mole unit cells)
--------------------------------------------------------------------------------

  Final fractional coordinates of atoms :

--------------------------------------------------------------------------------
   No.  Atomic        x           y          z          Radius
        Label       (Frac)      (Frac)     (Frac)       (Angs) 
--------------------------------------------------------------------------------
     1  Tc    c     0.121848    0.019936    0.086668    0.000000
     2  Mn    c     0.342227    0.264253    0.250064    0.000000
     3  Mn    c     0.622037    0.247039    0.084357    0.000000
     4  Mn    c     0.838370    0.493352    0.250185    0.000000
     5  Mn    c     0.122511    0.506278    0.084824    0.000000
     6  Mn    c     0.336466    0.759149    0.252673    0.000000
     7  Mn    c     0.619145    0.744452    0.082495    0.000000
     8  Mn    c     0.836053    0.989459    0.252231    0.000000
     9  Mn    c     0.119415    0.001334    0.418553    0.000000
    10  Mn    c     0.336539    0.254327    0.582216    0.000000
    11  Mn    c     0.622449    0.242153    0.417428    0.000000
    12  Mn    c     0.838294    0.493142    0.583634    0.000000
    13  Mn    c     0.121186    0.508507    0.417394    0.000000
    14  Mn    c     0.337337    0.755658    0.584005    0.000000
    15  Mn    c     0.619748    0.740890    0.417305    0.000000
    16  Mn    c     0.835141    0.987688    0.583994    0.000000
    17  Mn    c     0.122363    0.007585    0.749520    0.000000
    18  Mn    c     0.342265    0.264405    0.918531    0.000000
    19  Mn    c     0.619424    0.244766    0.748394    0.000000
    20  Mn    c     0.835251    0.488312    0.916601    0.000000
    21  Mn    c     0.122655    0.504202    0.748163    0.000000
    22  Mn    c     0.336696    0.755499    0.915028    0.000000
    23  Mn    c     0.619401    0.741917    0.751658    0.000000
    24  Mn    c     0.834152    0.008844    0.916286    0.000000
    25  Li    c     0.985864    0.768231    0.925148    0.000000
    26  O     c     0.016768    0.095266    0.259678    0.000000
    27  O     c     0.441672    0.358854    0.084080    0.000000
    28  O     c     0.526183    0.153599    0.249813    0.000000
    29  O     c     0.935212    0.401388    0.083131    0.000000
    30  O     c     0.253113    0.174662    0.083872    0.000000
    31  O     c     0.210089    0.411397    0.251345    0.000000
    32  O     c     0.752503    0.100696    0.085423    0.000000
    33  O     c     0.709519    0.344098    0.251758    0.000000
    34  O     c     0.025245    0.598967    0.249746    0.000000
    35  O     c     0.427923    0.849723    0.082750    0.000000
    36  O     c     0.523613    0.652126    0.248018    0.000000
    37  O     c     0.916208    0.903825    0.078861    0.000000
    38  O     c     0.243598    0.662238    0.083077    0.000000
    39  O     c     0.206115    0.901573    0.263009    0.000000
    40  O     c     0.755270    0.595266    0.082036    0.000000
    41  O     c     0.701876    0.843343    0.251086    0.000000
    42  O     c     0.021788    0.093329    0.583616    0.000000
    43  O     c     0.435833    0.350453    0.420461    0.000000
    44  O     c     0.525530    0.150880    0.583136    0.000000
    45  O     c     0.934245    0.402355    0.416943    0.000000
    46  O     c     0.248712    0.158786    0.414326    0.000000
    47  O     c     0.205552    0.404428    0.582395    0.000000
    48  O     c     0.748303    0.089975    0.418324    0.000000
    49  O     c     0.708857    0.343147    0.583641    0.000000
    50  O     c     0.025158    0.599127    0.584674    0.000000
    51  O     c     0.435366    0.846473    0.419516    0.000000
    52  O     c     0.526506    0.648320    0.584895    0.000000
    53  O     c     0.928497    0.894066    0.418698    0.000000
    54  O     c     0.254743    0.653434    0.418501    0.000000
    55  O     c     0.208733    0.906594    0.585076    0.000000
    56  O     c     0.751519    0.592492    0.416655    0.000000
    57  O     c     0.704325    0.840855    0.584739    0.000000
    58  O     c     0.022631    0.102493    0.908909    0.000000
    59  O     c     0.432166    0.350905    0.746175    0.000000
    60  O     c     0.526218    0.155044    0.917213    0.000000
    61  O     c     0.934895    0.400806    0.750334    0.000000
    62  O     c     0.253969    0.157157    0.753025    0.000000
    63  O     c     0.207613    0.410400    0.916807    0.000000
    64  O     c     0.746774    0.094565    0.746294    0.000000
    65  O     c     0.706758    0.342470    0.914702    0.000000
    66  O     c     0.025293    0.591165    0.915842    0.000000
    67  O     c     0.433613    0.847174    0.749469    0.000000
    68  O     c     0.522078    0.648992    0.918666    0.000000
    69  O     c     0.925611    0.902410    0.755178    0.000000
    70  O     c     0.251609    0.653265    0.748794    0.000000
    71  O     c     0.193237    0.891365    0.903726    0.000000
    72  O     c     0.754693    0.593846    0.751832    0.000000
    73  O     c     0.710111    0.840058    0.916037    0.000000
    74  Tc    s     0.125552    0.017879    0.085907    0.000000
    75  O     s     0.020082    0.065539    0.261115    0.000000
    76  O     s     0.437675    0.327911    0.083720    0.000000
    77  O     s     0.532168    0.185070    0.250404    0.000000
    78  O     s     0.929694    0.431908    0.082103    0.000000
    79  O     s     0.262851    0.180893    0.083754    0.000000
    80  O     s     0.207567    0.413592    0.250291    0.000000
    81  O     s     0.751571    0.100044    0.079837    0.000000
    82  O     s     0.708081    0.343049    0.250684    0.000000
    83  O     s     0.030389    0.568313    0.249368    0.000000
    84  O     s     0.422013    0.820016    0.082771    0.000000
    85  O     s     0.529411    0.682653    0.247919    0.000000
    86  O     s     0.907070    0.927627    0.077542    0.000000
    87  O     s     0.246379    0.661090    0.081657    0.000000
    88  O     s     0.209046    0.900980    0.271270    0.000000
    89  O     s     0.756838    0.591092    0.081961    0.000000
    90  O     s     0.701447    0.840543    0.251076    0.000000
    91  O     s     0.028221    0.062196    0.584744    0.000000
    92  O     s     0.429526    0.319511    0.417960    0.000000
    93  O     s     0.531104    0.182363    0.583421    0.000000
    94  O     s     0.928623    0.433555    0.417112    0.000000
    95  O     s     0.253478    0.162070    0.417767    0.000000
    96  O     s     0.203460    0.408068    0.583911    0.000000
    97  O     s     0.750115    0.088872    0.418063    0.000000
    98  O     s     0.706518    0.341236    0.584262    0.000000
    99  O     s     0.030435    0.568184    0.584523    0.000000
   100  O     s     0.430543    0.814660    0.419675    0.000000
   101  O     s     0.532627    0.678912    0.585009    0.000000
   102  O     s     0.921703    0.924635    0.419601    0.000000
   103  O     s     0.253932    0.655877    0.419396    0.000000
   104  O     s     0.205468    0.908747    0.584415    0.000000
   105  O     s     0.753213    0.590482    0.416518    0.000000
   106  O     s     0.703956    0.839489    0.585066    0.000000
   107  O     s     0.023493    0.073655    0.905788    0.000000
   108  O     s     0.427157    0.319873    0.748851    0.000000
   109  O     s     0.531330    0.186148    0.916384    0.000000
   110  O     s     0.929644    0.431630    0.751194    0.000000
   111  O     s     0.254509    0.158753    0.750215    0.000000
   112  O     s     0.205413    0.413367    0.916497    0.000000
   113  O     s     0.749881    0.093270    0.750932    0.000000
   114  O     s     0.707072    0.342925    0.915126    0.000000
   115  O     s     0.029256    0.573200    0.916706    0.000000
   116  O     s     0.428727    0.815515    0.749413    0.000000
   117  O     s     0.526676    0.680052    0.918620    0.000000
   118  O     s     0.919975    0.927431    0.755376    0.000000
   119  O     s     0.252117    0.655020    0.748621    0.000000
   120  O     s     0.197770    0.892709    0.896187    0.000000
   121  O     s     0.756155    0.589986    0.752224    0.000000
   122  O     s     0.701414    0.833517    0.915857    0.000000
--------------------------------------------------------------------------------

  Final Cartesian lattice vectors (Angstroms) :

        8.895097    0.000000    0.000000
        0.000000    9.546335    0.000000
        0.000000    0.000000    8.571300


  Final cell parameters and derivatives :

--------------------------------------------------------------------------------
       a            8.895097 Angstrom     dE/de1(xx)    -0.016142 eV/strain
       b            9.546335 Angstrom     dE/de2(yy)    -0.009647 eV/strain
       c            8.571300 Angstrom     dE/de3(zz)    -0.009887 eV/strain
       alpha       90.000000 Degrees      dE/de4(yz)     0.000000 eV/strain
       beta        90.000000 Degrees      dE/de5(xz)     0.000000 eV/strain
       gamma       90.000000 Degrees      dE/de6(xy)     0.000000 eV/strain
--------------------------------------------------------------------------------

  Primitive cell volume =           727.836872 Angs**3

  Density of cell =      4.874578 g/cm**3

  Non-primitive cell volume =           727.836872 Angs**3


  Final internal derivatives :

--------------------------------------------------------------------------------
   No.  Atomic          a             b             c           Radius
        Label          (eV)          (eV)          (eV)        (eV/Angs)
--------------------------------------------------------------------------------
      1 Tc    c      -0.000496      0.001331      0.000181      0.000000
      2 Mn    c       0.001721      0.000841      0.000306      0.000000
      3 Mn    c      -0.001272     -0.000608     -0.000027      0.000000
      4 Mn    c       0.001229      0.000922     -0.000116      0.000000
      5 Mn    c      -0.001221      0.001459     -0.000212      0.000000
      6 Mn    c       0.000147      0.000573     -0.000250      0.000000
      7 Mn    c      -0.000460     -0.000601     -0.000132      0.000000
      8 Mn    c       0.002037     -0.001428      0.000613      0.000000
      9 Mn    c      -0.000999     -0.001016     -0.000338      0.000000
     10 Mn    c       0.001363      0.000751     -0.000233      0.000000
     11 Mn    c      -0.001624     -0.000651     -0.000606      0.000000
     12 Mn    c       0.001277      0.000853     -0.000253      0.000000
     13 Mn    c      -0.000839      0.001211     -0.000185      0.000000
     14 Mn    c       0.000420     -0.000573      0.000359      0.000000
     15 Mn    c      -0.000220     -0.000219      0.000169      0.000000
     16 Mn    c       0.001275     -0.001865     -0.000210      0.000000
     17 Mn    c      -0.001052     -0.000067      0.000032      0.000000
     18 Mn    c       0.001916      0.000575     -0.000198      0.000000
     19 Mn    c      -0.001206     -0.001011      0.000639      0.000000
     20 Mn    c       0.000896      0.000500      0.000301      0.000000
     21 Mn    c      -0.000824      0.001511      0.000303      0.000000
     22 Mn    c       0.000399      0.000030     -0.000045      0.000000
     23 Mn    c      -0.000333     -0.000366      0.000070      0.000000
     24 Mn    c       0.002074     -0.001822     -0.000198      0.000000
     25 Li    c       0.000279     -0.000024      0.000024      0.000000
     26 O     c      -0.000149     -0.000412     -0.000582      0.000000
     27 O     c       0.000275     -0.000755     -0.000137      0.000000
     28 O     c      -0.000583      0.000399     -0.000150      0.000000
     29 O     c       0.000473      0.000141     -0.000057      0.000000
     30 O     c      -0.000122     -0.000003     -0.000108      0.000000
     31 O     c       0.000038      0.000311     -0.000133      0.000000
     32 O     c      -0.000449     -0.000036      0.000181      0.000000
     33 O     c       0.000284     -0.000173     -0.000142      0.000000
     34 O     c      -0.000498     -0.000301      0.000170      0.000000
     35 O     c       0.000001     -0.000525     -0.000219      0.000000
     36 O     c      -0.000417      0.000281      0.000025      0.000000
     37 O     c      -0.000238      0.001005     -0.000339      0.000000
     38 O     c      -0.000431      0.000379      0.000110      0.000000
     39 O     c       0.000428      0.000298      0.000035      0.000000
     40 O     c      -0.000058     -0.000168     -0.000018      0.000000
     41 O     c       0.000338     -0.000199      0.000263      0.000000
     42 O     c      -0.000317     -0.000661     -0.000018      0.000000
     43 O     c       0.000972     -0.000751      0.000208      0.000000
     44 O     c      -0.000760      0.000547     -0.000073      0.000000
     45 O     c       0.000468      0.000606     -0.000017      0.000000
     46 O     c       0.000373      0.000166     -0.000026      0.000000
     47 O     c       0.000120      0.000254     -0.000069      0.000000
     48 O     c      -0.000181     -0.000578     -0.000073      0.000000
     49 O     c      -0.000075     -0.000176     -0.000042      0.000000
     50 O     c      -0.000491     -0.000525     -0.000066      0.000000
     51 O     c       0.000214     -0.000064      0.000284      0.000000
     52 O     c      -0.000667      0.000419      0.000123      0.000000
     53 O     c       0.000451     -0.000122      0.000293      0.000000
     54 O     c      -0.000570      0.000282     -0.000009      0.000000
     55 O     c       0.000591      0.000054     -0.000051      0.000000
     56 O     c      -0.000285     -0.000029     -0.000121      0.000000
     57 O     c       0.000194     -0.000260     -0.000094      0.000000
     58 O     c      -0.000275     -0.000269      0.000584      0.000000
     59 O     c       0.000796     -0.000521     -0.000041      0.000000
     60 O     c      -0.000641      0.000449      0.000113      0.000000
     61 O     c       0.000865      0.000499      0.000025      0.000000
     62 O     c       0.000082     -0.000244      0.000080      0.000000
     63 O     c       0.000033      0.000037      0.000207      0.000000
     64 O     c      -0.000418     -0.000197      0.000122      0.000000
     65 O     c       0.000401     -0.000364      0.000081      0.000000
     66 O     c      -0.000613     -0.000490     -0.000140      0.000000
     67 O     c       0.000468     -0.000184     -0.000057      0.000000
     68 O     c      -0.000370      0.000768     -0.000061      0.000000
     69 O     c      -0.000100      0.000304      0.000054      0.000000
     70 O     c      -0.000483      0.000489     -0.000148      0.000000
     71 O     c       0.000463      0.000641     -0.000007      0.000000
     72 O     c      -0.000215     -0.000182      0.000164      0.000000
     73 O     c       0.000299     -0.000266     -0.000168      0.000000
     74 Tc    s      -0.000421      0.002538      0.000585      0.000000
     75 O     s      -0.000222      0.000438     -0.000669      0.000000
     76 O     s      -0.000804     -0.000638      0.000049      0.000000
     77 O     s       0.000842      0.000407      0.000178      0.000000
     78 O     s      -0.000663     -0.000815     -0.000294      0.000000
     79 O     s       0.000150      0.001632     -0.000215      0.000000
     80 O     s       0.000097      0.001202     -0.000096      0.000000
     81 O     s      -0.000061     -0.000377     -0.000348      0.000000
     82 O     s      -0.000530     -0.001517     -0.000024      0.000000
     83 O     s       0.001167     -0.001133      0.000381      0.000000
     84 O     s      -0.000619     -0.000370     -0.000354      0.000000
     85 O     s       0.000596     -0.000299     -0.000089      0.000000
     86 O     s      -0.000574      0.001278     -0.000417      0.000000
     87 O     s       0.001274      0.000508     -0.000054      0.000000
     88 O     s       0.000011      0.001348      0.000349      0.000000
     89 O     s      -0.000243     -0.002131      0.000117      0.000000
     90 O     s      -0.000541     -0.000944      0.000293      0.000000
     91 O     s       0.000872     -0.000012      0.000261      0.000000
     92 O     s      -0.001279     -0.000836      0.000265      0.000000
     93 O     s       0.000699      0.000769     -0.000243      0.000000
     94 O     s      -0.000591     -0.000772      0.000174      0.000000
     95 O     s       0.000050      0.001703      0.000226      0.000000
     96 O     s      -0.000309      0.001456      0.000117      0.000000
     97 O     s       0.000569     -0.001115     -0.000236      0.000000
     98 O     s      -0.000009     -0.001733     -0.000071      0.000000
     99 O     s       0.000771     -0.000697      0.000008      0.000000
    100 O     s      -0.000476     -0.000189      0.000242      0.000000
    101 O     s       0.000562      0.000480      0.000279      0.000000
    102 O     s      -0.001809      0.001197      0.000555      0.000000
    103 O     s       0.000475      0.000631      0.000200      0.000000
    104 O     s      -0.000264      0.001044     -0.000254      0.000000
    105 O     s      -0.000142     -0.001673      0.000075      0.000000
    106 O     s      -0.000208     -0.001043      0.000041      0.000000
    107 O     s       0.000274      0.000841      0.000262      0.000000
    108 O     s      -0.000584     -0.000324     -0.000294      0.000000
    109 O     s       0.000827      0.000912      0.000001      0.000000
    110 O     s      -0.000752     -0.000371     -0.000002      0.000000
    111 O     s      -0.000417      0.001334     -0.000021      0.000000
    112 O     s       0.000052      0.001583     -0.000154      0.000000
    113 O     s       0.000208     -0.000724      0.000467      0.000000
    114 O     s      -0.000363     -0.001212      0.000123      0.000000
    115 O     s       0.001079     -0.001096     -0.000633      0.000000
    116 O     s      -0.000453     -0.000575      0.000099      0.000000
    117 O     s      -0.000345     -0.000188      0.000021      0.000000
    118 O     s      -0.001124      0.000554     -0.000133      0.000000
    119 O     s       0.000983      0.000478     -0.000220      0.000000
    120 O     s       0.000030      0.001264     -0.000027      0.000000
    121 O     s      -0.000362     -0.001695     -0.000165      0.000000
    122 O     s      -0.001128     -0.001295     -0.000305      0.000000
--------------------------------------------------------------------------------
  Maximum abs         0.002074      0.002538      0.000669      0.000000
--------------------------------------------------------------------------------


  Born effective charge tensors : 

-------------------------------------------------------------------------------
  Atom             x           y             z
-------------------------------------------------------------------------------
    1 Tc    x       3.3751      0.2500      0.0906
            y       0.5087      2.4637      0.0169
            z       0.1366     -0.0087      3.7553
-------------------------------------------------------------------------------
    2 Mn    x       2.3909     -0.7107     -0.9638
            y      -0.7041      1.7259     -1.0230
            z      -0.6009     -0.6889      2.2001
-------------------------------------------------------------------------------
    3 Mn    x       1.9838     -0.0919     -0.0003
            y      -0.3159      1.6463      0.2641
            z       0.0157      0.0369      2.1767
-------------------------------------------------------------------------------
    4 Mn    x       2.3821      0.5918     -0.1185
            y       0.5643      1.7349      0.0004
            z      -0.1184      0.0101      2.3140
-------------------------------------------------------------------------------
    5 Mn    x       2.4340      0.6677      0.1814
            y       0.4760      1.6126     -0.1214
            z       0.1567     -0.1645      2.0694
-------------------------------------------------------------------------------
    6 Mn    x       2.3688      0.1513     -0.0710
            y       0.0006      1.3972      0.2440
            z      -0.0546      0.2908      2.8215
-------------------------------------------------------------------------------
    7 Mn    x       2.8892     -1.1787      0.0854
            y      -0.9135      1.8963      0.2000
            z       0.1901      0.2653      2.0305
-------------------------------------------------------------------------------
    8 Mn    x       1.7494      0.0713      0.4053
            y       0.1571      2.1379     -0.2022
            z       0.3033     -0.2246      2.6284
-------------------------------------------------------------------------------
    9 Mn    x       3.2195      1.3626      0.3673
            y       1.2559      2.2728     -0.1557
            z       0.1885     -0.3474      1.0998
-------------------------------------------------------------------------------
   10 Mn    x       2.4746     -0.9990     -0.0623
            y      -0.9776      1.6857     -0.0200
            z      -0.0386     -0.0956      1.9951
-------------------------------------------------------------------------------
   11 Mn    x       2.7140     -0.5937     -0.0134
            y      -0.4707      2.0172     -0.0430
            z      -0.1042     -0.0211      2.3848
-------------------------------------------------------------------------------
   12 Mn    x       2.5772      0.6689      0.1360
            y       0.6238      1.9136     -0.0453
            z       0.1256     -0.0571      2.4299
-------------------------------------------------------------------------------
   13 Mn    x       2.5215      0.4768      0.1381
            y       0.4715      1.8051     -0.0613
            z       0.0530     -0.0417      2.3776
-------------------------------------------------------------------------------
   14 Mn    x       2.9802     -0.8793     -0.0674
            y      -0.8839      2.0937     -0.0359
            z      -0.0354     -0.0118      2.2913
-------------------------------------------------------------------------------
   15 Mn    x       2.2577     -0.3923      0.0642
            y      -0.4506      1.9448      0.0549
            z       0.0374      0.0526      2.3519
-------------------------------------------------------------------------------
   16 Mn    x       2.3786      0.2862      0.1712
            y       0.2855      1.9427     -0.0531
            z       0.1275     -0.0692      2.5695
-------------------------------------------------------------------------------
   17 Mn    x       3.0874      1.0334     -0.4674
            y       1.0588      2.0182      0.1060
            z      -0.3479      0.2281      1.0286
-------------------------------------------------------------------------------
   18 Mn    x       2.4302     -0.7553      0.8920
            y      -0.8037      1.8730      0.9421
            z       0.6202      0.7674      2.1160
-------------------------------------------------------------------------------
   19 Mn    x       2.5899     -0.6573      0.0100
            y      -0.5238      1.8919     -0.2109
            z       0.0497      0.0433      2.1920
-------------------------------------------------------------------------------
   20 Mn    x       2.3532      0.6275     -0.0377
            y       0.6395      1.4568      0.0602
            z      -0.0037      0.0418      1.8573
-------------------------------------------------------------------------------
   21 Mn    x       2.3171      0.6372     -0.3334
            y       0.5969      1.5653      0.1529
            z      -0.2328      0.1958      2.1243
-------------------------------------------------------------------------------
   22 Mn    x       2.1968     -0.2619      0.2438
            y      -0.2053      1.2820     -0.1497
            z       0.1397     -0.2062      2.2449
-------------------------------------------------------------------------------
   23 Mn    x       2.3707     -0.8412     -0.1253
            y      -0.8063      1.7710     -0.2508
            z      -0.2094     -0.3220      2.0234
-------------------------------------------------------------------------------
   24 Mn    x       1.6772      1.2533     -0.5410
            y       1.0591      2.0196      0.1947
            z      -0.3979      0.2386      1.3302
-------------------------------------------------------------------------------
   25 Li    x       1.1638     -0.1831     -0.0597
            y      -0.0347      1.4858     -0.0387
            z      -0.0612     -0.0880      0.9485
-------------------------------------------------------------------------------
   26 O     x      -1.2847     -0.1563      0.0438
            y      -0.0280     -0.6840     -0.0775
            z       0.0279     -0.0770     -0.8669
-------------------------------------------------------------------------------
   27 O     x      -1.2521      0.2011      0.0159
            y       0.0729     -0.5643     -0.0065
            z       0.0220      0.0037     -0.8049
-------------------------------------------------------------------------------
   28 O     x      -1.3816      0.1962      0.0330
            y       0.0040     -0.6233      0.0177
            z       0.0137      0.0316     -0.6341
-------------------------------------------------------------------------------
   29 O     x      -1.4911     -0.2316      0.0757
            y       0.0101     -0.6551      0.0177
            z       0.0701      0.0112     -0.7085
-------------------------------------------------------------------------------
   30 O     x      -0.9548     -0.1768     -0.0132
            y      -0.0984     -0.9618     -0.0100
            z       0.0032     -0.0062     -1.2486
-------------------------------------------------------------------------------
   31 O     x      -1.0310      0.4380      0.0426
            y       0.3981     -1.1522     -0.0036
            z       0.0319     -0.0025     -1.4841
-------------------------------------------------------------------------------
   32 O     x      -0.9158      0.3747     -0.1611
            y       0.3551     -1.1461      0.2244
            z      -0.1054      0.2169     -1.6228
-------------------------------------------------------------------------------
   33 O     x      -1.0538     -0.5271      0.0641
            y      -0.4211     -1.2326      0.0844
            z       0.0569      0.0916     -1.6617
-------------------------------------------------------------------------------
   34 O     x      -1.4089     -0.2117     -0.0216
            y       0.0149     -0.6151      0.0281
            z      -0.0232      0.0294     -0.6983
-------------------------------------------------------------------------------
   35 O     x      -1.6320      0.2376     -0.0053
            y      -0.0413     -0.5949      0.0177
            z      -0.0315     -0.0156     -0.6729
-------------------------------------------------------------------------------
   36 O     x      -1.5363      0.2231     -0.0488
            y      -0.0078     -0.6331     -0.0221
            z      -0.0402     -0.0144     -0.6793
-------------------------------------------------------------------------------
   37 O     x      -1.4140     -0.1784      0.0591
            y      -0.1714     -0.9093     -0.1104
            z       0.0343     -0.0665     -0.6929
-------------------------------------------------------------------------------
   38 O     x      -1.1635     -0.5968     -0.1378
            y      -0.4220     -1.2017     -0.0345
            z      -0.0970     -0.0418     -1.7613
-------------------------------------------------------------------------------
   39 O     x      -0.9792      0.2230     -0.0623
            y       0.2017     -1.0662      0.0105
            z      -0.0511      0.0760     -1.3114
-------------------------------------------------------------------------------
   40 O     x      -1.1506      0.5602      0.0671
            y       0.4596     -1.3758      0.0216
            z       0.0309      0.0019     -1.6152
-------------------------------------------------------------------------------
   41 O     x      -1.0372     -0.4768     -0.0355
            y      -0.4057     -1.2607     -0.0340
            z      -0.0261     -0.0081     -1.5547
-------------------------------------------------------------------------------
   42 O     x      -1.5719     -0.3119      0.0663
            y      -0.0757     -0.6869      0.0207
            z       0.0798      0.0032     -0.6437
-------------------------------------------------------------------------------
   43 O     x      -1.5581      0.2090      0.0497
            y      -0.0529     -0.6614      0.0225
            z       0.1258      0.0572     -0.6281
-------------------------------------------------------------------------------
   44 O     x      -1.4448      0.2216      0.0187
            y       0.0159     -0.6295      0.0023
            z       0.0296     -0.0071     -0.5879
-------------------------------------------------------------------------------
   45 O     x      -1.4610     -0.2115     -0.0017
            y      -0.0116     -0.6236      0.0036
            z      -0.0102      0.0073     -0.6653
-------------------------------------------------------------------------------
   46 O     x      -1.2469     -0.7540      0.1944
            y      -0.5928     -1.5309      0.2016
            z       0.1499      0.2346     -1.5775
-------------------------------------------------------------------------------
   47 O     x      -1.0861      0.5319     -0.0667
            y       0.4500     -1.2807      0.0686
            z      -0.0417      0.0754     -1.4823
-------------------------------------------------------------------------------
   48 O     x      -1.0305      0.5438     -0.0300
            y       0.4331     -1.3198      0.0133
            z      -0.0281      0.0335     -1.6478
-------------------------------------------------------------------------------
   49 O     x      -1.0813     -0.5413     -0.0405
            y      -0.4445     -1.2608     -0.0463
            z      -0.0159     -0.0620     -1.5731
-------------------------------------------------------------------------------
   50 O     x      -1.4284     -0.1943      0.0070
            y       0.0081     -0.6399     -0.0221
            z       0.0001     -0.0100     -0.6876
-------------------------------------------------------------------------------
   51 O     x      -1.2641      0.1693      0.0071
            y      -0.0291     -0.6065     -0.0187
            z       0.0184     -0.0199     -0.6313
-------------------------------------------------------------------------------
   52 O     x      -1.5839      0.2433      0.0175
            y       0.0384     -0.6406      0.0015
            z       0.0026      0.0070     -0.6339
-------------------------------------------------------------------------------
   53 O     x      -1.5644     -0.2478     -0.1175
            y      -0.0746     -0.6786     -0.0019
            z      -0.0757      0.0393     -0.6075
-------------------------------------------------------------------------------
   54 O     x      -1.0479     -0.4467      0.0370
            y      -0.3897     -1.1869      0.0106
            z       0.0209      0.0085     -1.6359
-------------------------------------------------------------------------------
   55 O     x      -1.0997      0.5095      0.0240
            y       0.3959     -1.3116     -0.0127
            z       0.0321     -0.0466     -1.3889
-------------------------------------------------------------------------------
   56 O     x      -1.0870      0.5118     -0.0019
            y       0.4090     -1.2352      0.0070
            z      -0.0168      0.0181     -1.6033
-------------------------------------------------------------------------------
   57 O     x      -1.0128     -0.4443     -0.0404
            y      -0.3715     -1.2087     -0.0021
            z      -0.0232     -0.0198     -1.5616
-------------------------------------------------------------------------------
   58 O     x      -1.3137     -0.1567     -0.0783
            y      -0.0184     -0.7367      0.0678
            z      -0.0819      0.0792     -0.8496
-------------------------------------------------------------------------------
   59 O     x      -1.5202      0.1994     -0.0535
            y       0.0074     -0.6727     -0.0156
            z      -0.1225     -0.0527     -0.6579
-------------------------------------------------------------------------------
   60 O     x      -1.3676      0.2239     -0.0456
            y       0.0819     -0.6405     -0.0160
            z      -0.0367     -0.0305     -0.6819
-------------------------------------------------------------------------------
   61 O     x      -1.4494     -0.2230     -0.0753
            y      -0.0071     -0.6446     -0.0230
            z      -0.0619     -0.0190     -0.7041
-------------------------------------------------------------------------------
   62 O     x      -1.1364     -0.6016     -0.0835
            y      -0.4833     -1.3951     -0.0996
            z      -0.1027     -0.1560     -1.6298
-------------------------------------------------------------------------------
   63 O     x      -1.0944      0.4801      0.0090
            y       0.4398     -1.1792     -0.0419
            z       0.0053     -0.0528     -1.4384
-------------------------------------------------------------------------------
   64 O     x      -1.0092      0.5127      0.1828
            y       0.3964     -1.2201     -0.1866
            z       0.1273     -0.2271     -1.4623
-------------------------------------------------------------------------------
   65 O     x      -0.9319     -0.3153     -0.0183
            y      -0.2845     -1.0939     -0.0283
            z      -0.0350     -0.0235     -1.6427
-------------------------------------------------------------------------------
   66 O     x      -1.6160     -0.2027      0.0168
            y      -0.0103     -0.7432     -0.0154
            z       0.0170     -0.0207     -0.8504
-------------------------------------------------------------------------------
   67 O     x      -1.3419      0.1928     -0.0055
            y      -0.0099     -0.5996     -0.0018
            z      -0.0028      0.0277     -0.6145
-------------------------------------------------------------------------------
   68 O     x      -1.4764      0.1807      0.0309
            y      -0.0753     -0.6257      0.0222
            z       0.0337      0.0102     -0.7056
-------------------------------------------------------------------------------
   69 O     x      -1.7200     -0.2273      0.0835
            y      -0.0848     -0.7755      0.1014
            z       0.0615      0.0291     -0.7455
-------------------------------------------------------------------------------
   70 O     x      -1.1184     -0.4665      0.0392
            y      -0.4099     -1.1984     -0.0052
            z       0.0455      0.0262     -1.6037
-------------------------------------------------------------------------------
   71 O     x      -1.1880      0.2710      0.0120
            y       0.2635     -1.1879      0.0521
            z       0.0160      0.0190     -1.3060
-------------------------------------------------------------------------------
   72 O     x      -1.1252      0.5098     -0.0477
            y       0.4166     -1.2969     -0.0418
            z      -0.0101     -0.0168     -1.5683
-------------------------------------------------------------------------------
   73 O     x      -1.2188     -0.5976      0.0705
            y      -0.4585     -1.4664      0.0354
            z       0.0443      0.0353     -1.3272
-------------------------------------------------------------------------------



  Time to end of optimisation =       2.6163 seconds


  Peak dynamic memory used =       2.31 MB 


  Timing analysis for GULP :

--------------------------------------------------------------------------------
  Task / Subroutine                                          Time (Seconds)
--------------------------------------------------------------------------------
  Calculation of reciprocal space energy and derivatives          0.0623
  Calculation of real space energy and derivatives                0.5216
  Calculation and manipulation of Hessian matrix                  0.0029
  Calculation of matrix inversion                                 1.3518
  Global summation overhead                                       0.3835
--------------------------------------------------------------------------------
  Total CPU time                                                  2.6163
--------------------------------------------------------------------------------


  Job Finished at 16:21.02 26th June       2024                               

KLMC_FINALIZE> start: 20240626 162059.730 end: 20240626 162102.361 elapsed_time:   2.63096493 cpu_count:  128 task_id:    1 worker_id:    1 io_path: /mnt/lustre/a2fs-work2/work/e05/e05/wkjee/Software/gulpklmc/klmc3_tf_interface.update.12092023/KLMC3-libgulp-6.1.2-memoryfix/Src/_build_libgulp/sample2                                                                                                         
in gulpklmc.F90 : KLMC klmc_task_iopath: /mnt/lustre/a2fs-work2/work/e05/e05/wkjee/Software/gulpklmc/klmc3_tf_interface.update.12092023/KLMC3-libgulp-6.1.2-memoryfix/Src/_build_libgulp/sample3                                                                                                                                                                                                                                                                                                                                                                         
in gulpklmc.F90 : KLMC gulp_klmc_iopath: /mnt/lustre/a2fs-work2/work/e05/e05/wkjee/Software/gulpklmc/klmc3_tf_interface.update.12092023/KLMC3-libgulp-6.1.2-memoryfix/Src/_build_libgulp/sample3                                                                                                         
