********************************************************************************
*                       GENERAL UTILITY LATTICE PROGRAM                        *
*                                 Julian Gale                                  *
*                       Curtin Institute for Computation                       *
*                    School of Molecular and Life Sciences                     *
*                    Curtin University, Western Australia                      *
********************************************************************************
* Version = 6.1.2 * Last modified =   3rd November 2022                        *
********************************************************************************
*  optimise     - perform optimisation run                                     *
********************************************************************************

  Job Started  at 10:57.11  6th September  2023                               

  Number of CPUs =     1

  Host name      = ln01                                    


  Total number of configurations input =      1

********************************************************************************
*  Input for Configuration =   1 : CeO2                                        *
********************************************************************************

  Formula = La2Ce178O359                                                

  Number of irreducible atoms/shells =    1078


  Total number atoms/shells =    1078

  Dimensionality = 3               :  Bulk   



  Cartesian lattice vectors (Angstroms) :

       19.073999    0.000000    0.000000
        0.000000   19.822500    0.000000
        0.000000    0.000000   18.688801

  Cell parameters (Angstroms/Degrees):

  a =      19.0740    alpha =  90.0000
  b =      19.8225    beta  =  90.0000
  c =      18.6888    gamma =  90.0000

  Initial cell volume =        7066.130137 Angs**3

  Temperature of configuration =   0.00     K 

  Pressure of configuration =         0.000 GPa 

  Fractional coordinates of asymmetric unit :

--------------------------------------------------------------------------------
   No.  Atomic       x           y          z         Charge      Occupancy
        Label      (Frac)      (Frac)     (Frac)        (e)         (Frac)  
--------------------------------------------------------------------------------
      1 La    c    0.200000 *  0.666667 *  0.000000 *  -6.94525    1.000000    
      2 La    c    0.200000 *  0.222223 *  0.333335 *  -6.94525    1.000000    
      3 Ce    c    0.800000 *  0.888890 *  0.833335 *  -9.85000    1.000000    
      4 Ce    c    0.500000 *  0.833333 *  0.000000 *  -9.85000    1.000000    
      5 Ce    c    0.800000 *  0.777777 *  0.166665 *  -9.85000    1.000000    
      6 Ce    c    0.600000 *  0.222223 *  0.833335 *  -9.85000    1.000000    
      7 Ce    c    0.000000 *  0.000000 *  0.000000 *  -9.85000    1.000000    
      8 Ce    c    0.000000 *  0.333333 *  0.000000 *  -9.85000    1.000000    
      9 Ce    c    0.200000 *  0.222223 *  0.833335 *  -9.85000    1.000000    
     10 Ce    c    0.200000 *  0.333333 *  0.000000 *  -9.85000    1.000000    
     11 Ce    c    0.500000 *  0.277777 *  0.666665 *  -9.85000    1.000000    
     12 Ce    c    0.600000 *  0.222223 *  0.333335 *  -9.85000    1.000000    
     13 Ce    c    0.900000 *  0.611110 *  0.166665 *  -9.85000    1.000000    
     14 Ce    c    0.100000 *  0.722223 *  0.833335 *  -9.85000    1.000000    
     15 Ce    c    0.900000 *  0.277777 *  0.166665 *  -9.85000    1.000000    
     16 Ce    c    0.800000 *  0.555557 *  0.333335 *  -9.85000    1.000000    
     17 Ce    c    0.500000 *  0.500000 *  0.500000 *  -9.85000    1.000000    
     18 Ce    c    0.300000 *  0.166667 *  0.000000 *  -9.85000    1.000000    
     19 Ce    c    0.300000 *  0.944443 *  0.166665 *  -9.85000    1.000000    
     20 Ce    c    0.800000 *  0.444443 *  0.666665 *  -9.85000    1.000000    
     21 Ce    c    0.800000 *  0.000000 *  0.500000 *  -9.85000    1.000000    
     22 Ce    c    0.400000 *  0.000000 *  0.500000 *  -9.85000    1.000000    
     23 Ce    c    0.000000 *  0.333333 *  0.500000 *  -9.85000    1.000000    
     24 Ce    c    0.200000 *  0.666667 *  0.500000 *  -9.85000    1.000000    
     25 Ce    c    0.500000 *  0.277777 *  0.166665 *  -9.85000    1.000000    
     26 Ce    c    0.700000 *  0.833333 *  0.000000 *  -9.85000    1.000000    
     27 Ce    c    0.400000 *  0.888890 *  0.833335 *  -9.85000    1.000000    
     28 Ce    c    0.900000 *  0.166667 *  0.500000 *  -9.85000    1.000000    
     29 Ce    c    0.900000 *  0.277777 *  0.666665 *  -9.85000    1.000000    
     30 Ce    c    0.800000 *  0.888890 *  0.333335 *  -9.85000    1.000000    
     31 Ce    c    0.400000 *  0.444443 *  0.666665 *  -9.85000    1.000000    
     32 Ce    c    0.100000 *  0.722223 *  0.333335 *  -9.85000    1.000000    
     33 Ce    c    0.000000 *  0.555557 *  0.333335 *  -9.85000    1.000000    
     34 Ce    c    0.300000 *  0.722223 *  0.833335 *  -9.85000    1.000000    
     35 Ce    c    0.700000 *  0.833333 *  0.500000 *  -9.85000    1.000000    
     36 Ce    c    0.700000 *  0.277777 *  0.166665 *  -9.85000    1.000000    
     37 Ce    c    0.400000 *  0.666667 *  0.500000 *  -9.85000    1.000000    
     38 Ce    c    0.000000 *  0.666667 *  0.500000 *  -9.85000    1.000000    
     39 Ce    c    0.600000 *  0.888890 *  0.333335 *  -9.85000    1.000000    
     40 Ce    c    0.200000 *  0.444443 *  0.666665 *  -9.85000    1.000000    
     41 Ce    c    0.900000 *  0.388890 *  0.333335 *  -9.85000    1.000000    
     42 Ce    c    0.100000 *  0.944443 *  0.666665 *  -9.85000    1.000000    
     43 Ce    c    0.700000 *  0.611110 *  0.666665 *  -9.85000    1.000000    
     44 Ce    c    0.500000 *  0.055557 *  0.333335 *  -9.85000    1.000000    
     45 Ce    c    0.000000 *  0.555557 *  0.833335 *  -9.85000    1.000000    
     46 Ce    c    0.800000 *  0.444443 *  0.166665 *  -9.85000    1.000000    
     47 Ce    c    0.900000 *  0.500000 *  0.000000 *  -9.85000    1.000000    
     48 Ce    c    0.600000 *  0.666667 *  0.500000 *  -9.85000    1.000000    
     49 Ce    c    0.900000 *  0.722223 *  0.333335 *  -9.85000    1.000000    
     50 Ce    c    0.200000 *  0.777777 *  0.166665 *  -9.85000    1.000000    
     51 Ce    c    0.500000 *  0.166667 *  0.500000 *  -9.85000    1.000000    
     52 Ce    c    0.900000 *  0.388890 *  0.833335 *  -9.85000    1.000000    
     53 Ce    c    0.000000 *  0.222223 *  0.833335 *  -9.85000    1.000000    
     54 Ce    c    0.000000 *  0.111110 *  0.166665 *  -9.85000    1.000000    
     55 Ce    c    0.200000 *  0.111110 *  0.166665 *  -9.85000    1.000000    
     56 Ce    c    0.000000 *  0.222223 *  0.333335 *  -9.85000    1.000000    
     57 Ce    c    0.100000 *  0.166667 *  0.000000 *  -9.85000    1.000000    
     58 Ce    c    0.000000 *  0.777777 *  0.166665 *  -9.85000    1.000000    
     59 Ce    c    0.800000 *  0.777777 *  0.666665 *  -9.85000    1.000000    
     60 Ce    c    0.900000 *  0.722223 *  0.833335 *  -9.85000    1.000000    
     61 Ce    c    0.900000 *  0.500000 *  0.500000 *  -9.85000    1.000000    
     62 Ce    c    0.600000 *  0.333333 *  0.000000 *  -9.85000    1.000000    
     63 Ce    c    0.600000 *  0.111110 *  0.166665 *  -9.85000    1.000000    
     64 Ce    c    0.100000 *  0.500000 *  0.500000 *  -9.85000    1.000000    
     65 Ce    c    0.700000 *  0.166667 *  0.000000 *  -9.85000    1.000000    
     66 Ce    c    0.700000 *  0.944443 *  0.166665 *  -9.85000    1.000000    
     67 Ce    c    0.200000 *  0.555557 *  0.333335 *  -9.85000    1.000000    
     68 Ce    c    0.500000 *  0.833333 *  0.500000 *  -9.85000    1.000000    
     69 Ce    c    0.200000 *  0.333333 *  0.500000 *  -9.85000    1.000000    
     70 Ce    c    0.600000 *  0.555557 *  0.833335 *  -9.85000    1.000000    
     71 Ce    c    0.500000 *  0.055557 *  0.833335 *  -9.85000    1.000000    
     72 Ce    c    0.300000 *  0.833333 *  0.500000 *  -9.85000    1.000000    
     73 Ce    c    0.400000 *  0.777777 *  0.666665 *  -9.85000    1.000000    
     74 Ce    c    0.200000 *  0.777777 *  0.666665 *  -9.85000    1.000000    
     75 Ce    c    0.800000 *  0.222223 *  0.833335 *  -9.85000    1.000000    
     76 Ce    c    0.400000 *  0.222223 *  0.333335 *  -9.85000    1.000000    
     77 Ce    c    0.100000 *  0.944443 *  0.166665 *  -9.85000    1.000000    
     78 Ce    c    0.000000 *  0.444443 *  0.166665 *  -9.85000    1.000000    
     79 Ce    c    0.200000 *  0.000000 *  0.500000 *  -9.85000    1.000000    
     80 Ce    c    0.200000 *  0.444443 *  0.166665 *  -9.85000    1.000000    
     81 Ce    c    0.300000 *  0.944443 *  0.666665 *  -9.85000    1.000000    
     82 Ce    c    0.200000 *  0.555557 *  0.833335 *  -9.85000    1.000000    
     83 Ce    c    0.400000 *  0.888890 *  0.333335 *  -9.85000    1.000000    
     84 Ce    c    0.100000 *  0.611110 *  0.666665 *  -9.85000    1.000000    
     85 Ce    c    0.900000 *  0.944443 *  0.666665 *  -9.85000    1.000000    
     86 Ce    c    0.700000 *  0.388890 *  0.333335 *  -9.85000    1.000000    
     87 Ce    c    0.400000 *  0.666667 *  0.000000 *  -9.85000    1.000000    
     88 Ce    c    0.500000 *  0.166667 *  0.000000 *  -9.85000    1.000000    
     89 Ce    c    0.000000 *  0.000000 *  0.500000 *  -9.85000    1.000000    
     90 Ce    c    0.300000 *  0.277777 *  0.166665 *  -9.85000    1.000000    
     91 Ce    c    0.700000 *  0.500000 *  0.500000 *  -9.85000    1.000000    
     92 Ce    c    0.500000 *  0.722223 *  0.333335 *  -9.85000    1.000000    
     93 Ce    c    0.300000 *  0.388890 *  0.333335 *  -9.85000    1.000000    
     94 Ce    c    0.900000 *  0.055557 *  0.333335 *  -9.85000    1.000000    
     95 Ce    c    0.600000 *  0.555557 *  0.333335 *  -9.85000    1.000000    
     96 Ce    c    0.100000 *  0.277777 *  0.666665 *  -9.85000    1.000000    
     97 Ce    c    0.200000 *  0.888890 *  0.833335 *  -9.85000    1.000000    
     98 Ce    c    0.200000 *  0.888890 *  0.333335 *  -9.85000    1.000000    
     99 Ce    c    0.500000 *  0.944443 *  0.666665 *  -9.85000    1.000000    
    100 Ce    c    0.500000 *  0.388890 *  0.333335 *  -9.85000    1.000000    
    101 Ce    c    0.300000 *  0.166667 *  0.500000 *  -9.85000    1.000000    
    102 Ce    c    0.100000 *  0.500000 *  0.000000 *  -9.85000    1.000000    
    103 Ce    c    0.800000 *  0.666667 *  0.000000 *  -9.85000    1.000000    
    104 Ce    c    0.500000 *  0.388890 *  0.833335 *  -9.85000    1.000000    
    105 Ce    c    0.400000 *  0.555557 *  0.333335 *  -9.85000    1.000000    
    106 Ce    c    0.800000 *  0.222223 *  0.333335 *  -9.85000    1.000000    
    107 Ce    c    0.300000 *  0.722223 *  0.333335 *  -9.85000    1.000000    
    108 Ce    c    0.600000 *  0.444443 *  0.666665 *  -9.85000    1.000000    
    109 Ce    c    0.900000 *  0.611110 *  0.666665 *  -9.85000    1.000000    
    110 Ce    c    0.800000 *  0.111110 *  0.666665 *  -9.85000    1.000000    
    111 Ce    c    0.800000 *  0.333333 *  0.000000 *  -9.85000    1.000000    
    112 Ce    c    0.100000 *  0.611110 *  0.166665 *  -9.85000    1.000000    
    113 Ce    c    0.100000 *  0.388890 *  0.333335 *  -9.85000    1.000000    
    114 Ce    c    0.900000 *  0.833333 *  0.000000 *  -9.85000    1.000000    
    115 Ce    c    0.700000 *  0.388890 *  0.833335 *  -9.85000    1.000000    
    116 Ce    c    0.600000 *  0.000000 *  0.000000 *  -9.85000    1.000000    
    117 Ce    c    0.500000 *  0.500000 *  0.000000 *  -9.85000    1.000000    
    118 Ce    c    0.300000 *  0.611110 *  0.166665 *  -9.85000    1.000000    
    119 Ce    c    0.500000 *  0.611110 *  0.166665 *  -9.85000    1.000000    
    120 Ce    c    0.300000 *  0.388890 *  0.833335 *  -9.85000    1.000000    
    121 Ce    c    0.700000 *  0.944443 *  0.666665 *  -9.85000    1.000000    
    122 Ce    c    0.600000 *  0.888890 *  0.833335 *  -9.85000    1.000000    
    123 Ce    c    0.600000 *  0.777777 *  0.666665 *  -9.85000    1.000000    
    124 Ce    c    0.600000 *  0.777777 *  0.166665 *  -9.85000    1.000000    
    125 Ce    c    0.100000 *  0.277777 *  0.166665 *  -9.85000    1.000000    
    126 Ce    c    0.500000 *  0.722223 *  0.833335 *  -9.85000    1.000000    
    127 Ce    c    0.600000 *  0.666667 *  0.000000 *  -9.85000    1.000000    
    128 Ce    c    0.900000 *  0.055557 *  0.833335 *  -9.85000    1.000000    
    129 Ce    c    0.300000 *  0.500000 *  0.000000 *  -9.85000    1.000000    
    130 Ce    c    0.300000 *  0.500000 *  0.500000 *  -9.85000    1.000000    
    131 Ce    c    0.800000 *  0.666667 *  0.500000 *  -9.85000    1.000000    
    132 Ce    c    0.400000 *  0.333333 *  0.500000 *  -9.85000    1.000000    
    133 Ce    c    0.700000 *  0.722223 *  0.833335 *  -9.85000    1.000000    
    134 Ce    c    0.300000 *  0.055557 *  0.833335 *  -9.85000    1.000000    
    135 Ce    c    0.700000 *  0.277777 *  0.666665 *  -9.85000    1.000000    
    136 Ce    c    0.700000 *  0.500000 *  0.000000 *  -9.85000    1.000000    
    137 Ce    c    0.200000 *  0.000000 *  0.000000 *  -9.85000    1.000000    
    138 Ce    c    0.100000 *  0.166667 *  0.500000 *  -9.85000    1.000000    
    139 Ce    c    0.900000 *  0.833333 *  0.500000 *  -9.85000    1.000000    
    140 Ce    c    0.800000 *  0.111110 *  0.166665 *  -9.85000    1.000000    
    141 Ce    c    0.500000 *  0.611110 *  0.666665 *  -9.85000    1.000000    
    142 Ce    c    0.000000 *  0.777777 *  0.666665 *  -9.85000    1.000000    
    143 Ce    c    0.400000 *  0.333333 *  0.000000 *  -9.85000    1.000000    
    144 Ce    c    0.100000 *  0.388890 *  0.833335 *  -9.85000    1.000000    
    145 Ce    c    0.400000 *  0.111110 *  0.666665 *  -9.85000    1.000000    
    146 Ce    c    0.600000 *  0.000000 *  0.500000 *  -9.85000    1.000000    
    147 Ce    c    0.100000 *  0.833333 *  0.500000 *  -9.85000    1.000000    
    148 Ce    c    0.100000 *  0.833333 *  0.000000 *  -9.85000    1.000000    
    149 Ce    c    0.700000 *  0.055557 *  0.833335 *  -9.85000    1.000000    
    150 Ce    c    0.700000 *  0.722223 *  0.333335 *  -9.85000    1.000000    
    151 Ce    c    0.600000 *  0.111110 *  0.666665 *  -9.85000    1.000000    
    152 Ce    c    0.700000 *  0.166667 *  0.500000 *  -9.85000    1.000000    
    153 Ce    c    0.800000 *  0.333333 *  0.500000 *  -9.85000    1.000000    
    154 Ce    c    0.000000 *  0.666667 *  0.000000 *  -9.85000    1.000000    
    155 Ce    c    0.400000 *  0.444443 *  0.166665 *  -9.85000    1.000000    
    156 Ce    c    0.400000 *  0.555557 *  0.833335 *  -9.85000    1.000000    
    157 Ce    c    0.500000 *  0.944443 *  0.166665 *  -9.85000    1.000000    
    158 Ce    c    0.900000 *  0.944443 *  0.166665 *  -9.85000    1.000000    
    159 Ce    c    0.400000 *  0.222223 *  0.833335 *  -9.85000    1.000000    
    160 Ce    c    0.000000 *  0.888890 *  0.833335 *  -9.85000    1.000000    
    161 Ce    c    0.400000 *  0.000000 *  0.000000 *  -9.85000    1.000000    
    162 Ce    c    0.800000 *  0.555557 *  0.833335 *  -9.85000    1.000000    
    163 Ce    c    0.400000 *  0.111110 *  0.166665 *  -9.85000    1.000000    
    164 Ce    c    0.900000 *  0.166667 *  0.000000 *  -9.85000    1.000000    
    165 Ce    c    0.700000 *  0.611110 *  0.166665 *  -9.85000    1.000000    
    166 Ce    c    0.000000 *  0.444443 *  0.666665 *  -9.85000    1.000000    
    167 Ce    c    0.700000 *  0.055557 *  0.333335 *  -9.85000    1.000000    
    168 Ce    c    0.300000 *  0.055557 *  0.333335 *  -9.85000    1.000000    
    169 Ce    c    0.000000 *  0.888890 *  0.333335 *  -9.85000    1.000000    
    170 Ce    c    0.000000 *  0.111110 *  0.666665 *  -9.85000    1.000000    
    171 Ce    c    0.600000 *  0.333333 *  0.500000 *  -9.85000    1.000000    
    172 Ce    c    0.200000 *  0.111110 *  0.666665 *  -9.85000    1.000000    
    173 Ce    c    0.800000 *  0.000000 *  0.000000 *  -9.85000    1.000000    
    174 Ce    c    0.300000 *  0.611110 *  0.666665 *  -9.85000    1.000000    
    175 Ce    c    0.100000 *  0.055557 *  0.833335 *  -9.85000    1.000000    
    176 Ce    c    0.600000 *  0.444443 *  0.166665 *  -9.85000    1.000000    
    177 Ce    c    0.400000 *  0.777777 *  0.166665 *  -9.85000    1.000000    
    178 Ce    c    0.300000 *  0.277777 *  0.666665 *  -9.85000    1.000000    
    179 Ce    c    0.300000 *  0.833333 *  0.000000 *  -9.85000    1.000000    
    180 Ce    c    0.100000 *  0.055557 *  0.333335 *  -9.85000    1.000000    
    181 O     c    0.300000 *  0.722223 *  0.458335 *   0.93635    1.000000    
    182 O     c    0.200000 *  0.555557 *  0.458335 *   0.93635    1.000000    
    183 O     c    0.100000 *  0.388890 *  0.958335 *   0.93635    1.000000    
    184 O     c    0.000000 *  0.777777 *  0.791665 *   0.93635    1.000000    
    185 O     c    0.600000 *  0.000000 *  0.875000 *   0.93635    1.000000    
    186 O     c    0.800000 *  0.888890 *  0.958335 *   0.93635    1.000000    
    187 O     c    0.800000 *  0.000000 *  0.625000 *   0.93635    1.000000    
    188 O     c    0.500000 *  0.277777 *  0.041665 *   0.93635    1.000000    
    189 O     c    0.200000 *  0.666667 *  0.125000 *   0.93635    1.000000    
    190 O     c    0.900000 *  0.722223 *  0.458335 *   0.93635    1.000000    
    191 O     c    0.100000 *  0.055557 *  0.458335 *   0.93635    1.000000    
    192 O     c    0.500000 *  0.611110 *  0.541665 *   0.93635    1.000000    
    193 O     c    0.200000 *  0.333333 *  0.625000 *   0.93635    1.000000    
    194 O     c    0.600000 *  0.000000 *  0.375000 *   0.93635    1.000000    
    195 O     c    0.300000 *  0.611110 *  0.541665 *   0.93635    1.000000    
    196 O     c    0.100000 *  0.611110 *  0.791665 *   0.93635    1.000000    
    197 O     c    0.000000 *  0.222223 *  0.458335 *   0.93635    1.000000    
    198 O     c    0.700000 *  0.388890 *  0.458335 *   0.93635    1.000000    
    199 O     c    0.600000 *  0.111110 *  0.791665 *   0.93635    1.000000    
    200 O     c    0.800000 *  0.111110 *  0.791665 *   0.93635    1.000000    
    201 O     c    0.000000 *  0.888890 *  0.458335 *   0.93635    1.000000    
    202 O     c    0.000000 *  0.888890 *  0.708335 *   0.93635    1.000000    
    203 O     c    0.600000 *  0.888890 *  0.958335 *   0.93635    1.000000    
    204 O     c    0.700000 *  0.611110 *  0.791665 *   0.93635    1.000000    
    205 O     c    0.500000 *  0.166667 *  0.625000 *   0.93635    1.000000    
    206 O     c    0.100000 *  0.166667 *  0.375000 *   0.93635    1.000000    
    207 O     c    0.000000 *  0.555557 *  0.208335 *   0.93635    1.000000    
    208 O     c    0.800000 *  0.222223 *  0.458335 *   0.93635    1.000000    
    209 O     c    0.400000 *  0.888890 *  0.458335 *   0.93635    1.000000    
    210 O     c    0.200000 *  0.888890 *  0.708335 *   0.93635    1.000000    
    211 O     c    0.200000 *  0.555557 *  0.958335 *   0.93635    1.000000    
    212 O     c    0.400000 *  0.222223 *  0.708335 *   0.93635    1.000000    
    213 O     c    0.000000 *  0.000000 *  0.375000 *   0.93635    1.000000    
    214 O     c    0.600000 *  0.777777 *  0.541665 *   0.93635    1.000000    
    215 O     c    0.800000 *  0.444443 *  0.291665 *   0.93635    1.000000    
    216 O     c    0.000000 *  0.111110 *  0.041665 *   0.93635    1.000000    
    217 O     c    0.800000 *  0.555557 *  0.958335 *   0.93635    1.000000    
    218 O     c    0.100000 *  0.055557 *  0.958335 *   0.93635    1.000000    
    219 O     c    0.400000 *  0.000000 *  0.875000 *   0.93635    1.000000    
    220 O     c    0.800000 *  0.222223 *  0.958335 *   0.93635    1.000000    
    221 O     c    0.000000 *  0.666667 *  0.625000 *   0.93635    1.000000    
    222 O     c    0.700000 *  0.166667 *  0.375000 *   0.93635    1.000000    
    223 O     c    0.500000 *  0.833333 *  0.625000 *   0.93635    1.000000    
    224 O     c    0.300000 *  0.166667 *  0.875000 *   0.93635    1.000000    
    225 O     c    0.700000 *  0.833333 *  0.375000 *   0.93635    1.000000    
    226 O     c    0.900000 *  0.611110 *  0.541665 *   0.93635    1.000000    
    227 O     c    0.800000 *  0.111110 *  0.291665 *   0.93635    1.000000    
    228 O     c    0.400000 *  0.000000 *  0.125000 *   0.93635    1.000000    
    229 O     c    0.700000 *  0.277777 *  0.041665 *   0.93635    1.000000    
    230 O     c    0.600000 *  0.555557 *  0.708335 *   0.93635    1.000000    
    231 O     c    0.700000 *  0.833333 *  0.125000 *   0.93635    1.000000    
    232 O     c    0.000000 *  0.333333 *  0.875000 *   0.93635    1.000000    
    233 O     c    0.300000 *  0.388890 *  0.958335 *   0.93635    1.000000    
    234 O     c    0.000000 *  0.000000 *  0.625000 *   0.93635    1.000000    
    235 O     c    0.600000 *  0.777777 *  0.041665 *   0.93635    1.000000    
    236 O     c    0.700000 *  0.500000 *  0.375000 *   0.93635    1.000000    
    237 O     c    0.900000 *  0.833333 *  0.875000 *   0.93635    1.000000    
    238 O     c    0.800000 *  0.777777 *  0.541665 *   0.93635    1.000000    
    239 O     c    0.000000 *  0.000000 *  0.875000 *   0.93635    1.000000    
    240 O     c    0.400000 *  0.666667 *  0.125000 *   0.93635    1.000000    
    241 O     c    0.800000 *  0.111110 *  0.041665 *   0.93635    1.000000    
    242 O     c    0.200000 *  0.888890 *  0.458335 *   0.93635    1.000000    
    243 O     c    0.600000 *  0.666667 *  0.875000 *   0.93635    1.000000    
    244 O     c    0.800000 *  0.222223 *  0.208335 *   0.93635    1.000000    
    245 O     c    0.100000 *  0.611110 *  0.041665 *   0.93635    1.000000    
    246 O     c    0.500000 *  0.722223 *  0.458335 *   0.93635    1.000000    
    247 O     c    0.300000 *  0.611110 *  0.791665 *   0.93635    1.000000    
    248 O     c    0.900000 *  0.277777 *  0.791665 *   0.93635    1.000000    
    249 O     c    0.200000 *  0.333333 *  0.875000 *   0.93635    1.000000    
    250 O     c    0.900000 *  0.055557 *  0.458335 *   0.93635    1.000000    
    251 O     c    0.900000 *  0.944443 *  0.291665 *   0.93635    1.000000    
    252 O     c    0.500000 *  0.722223 *  0.708335 *   0.93635    1.000000    
    253 O     c    0.100000 *  0.388890 *  0.458335 *   0.93635    1.000000    
    254 O     c    0.800000 *  0.222223 *  0.708335 *   0.93635    1.000000    
    255 O     c    0.400000 *  0.777777 *  0.041665 *   0.93635    1.000000    
    256 O     c    0.500000 *  0.944443 *  0.791665 *   0.93635    1.000000    
    257 O     c    0.300000 *  0.388890 *  0.708335 *   0.93635    1.000000    
    258 O     c    0.200000 *  0.111110 *  0.541665 *   0.93635    1.000000    
    259 O     c    0.600000 *  0.111110 *  0.291665 *   0.93635    1.000000    
    260 O     c    0.100000 *  0.500000 *  0.875000 *   0.93635    1.000000    
    261 O     c    0.600000 *  0.333333 *  0.625000 *   0.93635    1.000000    
    262 O     c    0.700000 *  0.944443 *  0.041665 *   0.93635    1.000000    
    263 O     c    0.900000 *  0.611110 *  0.791665 *   0.93635    1.000000    
    264 O     c    0.000000 *  0.555557 *  0.458335 *   0.93635    1.000000    
    265 O     c    0.400000 *  0.777777 *  0.791665 *   0.93635    1.000000    
    266 O     c    0.500000 *  0.055557 *  0.958335 *   0.93635    1.000000    
    267 O     c    0.300000 *  0.944443 *  0.541665 *   0.93635    1.000000    
    268 O     c    0.300000 *  0.388890 *  0.208335 *   0.93635    1.000000    
    269 O     c    0.800000 *  0.444443 *  0.541665 *   0.93635    1.000000    
    270 O     c    0.300000 *  0.277777 *  0.291665 *   0.93635    1.000000    
    271 O     c    0.000000 *  0.222223 *  0.958335 *   0.93635    1.000000    
    272 O     c    0.500000 *  0.500000 *  0.625000 *   0.93635    1.000000    
    273 O     c    0.900000 *  0.388890 *  0.458335 *   0.93635    1.000000    
    274 O     c    0.100000 *  0.833333 *  0.375000 *   0.93635    1.000000    
    275 O     c    0.800000 *  0.666667 *  0.375000 *   0.93635    1.000000    
    276 O     c    0.000000 *  0.000000 *  0.125000 *   0.93635    1.000000    
    277 O     c    0.200000 *  0.333333 *  0.375000 *   0.93635    1.000000    
    278 O     c    0.200000 *  0.666667 *  0.875000 *   0.93635    1.000000    
    279 O     c    0.600000 *  0.666667 *  0.625000 *   0.93635    1.000000    
    280 O     c    0.100000 *  0.277777 *  0.041665 *   0.93635    1.000000    
    281 O     c    0.900000 *  0.166667 *  0.625000 *   0.93635    1.000000    
    282 O     c    0.500000 *  0.944443 *  0.291665 *   0.93635    1.000000    
    283 O     c    0.200000 *  0.777777 *  0.041665 *   0.93635    1.000000    
    284 O     c    0.300000 *  0.833333 *  0.125000 *   0.93635    1.000000    
    285 O     c    0.800000 *  0.888890 *  0.208335 *   0.93635    1.000000    
    286 O     c    0.500000 *  0.833333 *  0.875000 *   0.93635    1.000000    
    287 O     c    0.000000 *  0.444443 *  0.541665 *   0.93635    1.000000    
    288 O     c    0.500000 *  0.500000 *  0.375000 *   0.93635    1.000000    
    289 O     c    0.500000 *  0.611110 *  0.791665 *   0.93635    1.000000    
    290 O     c    0.600000 *  0.444443 *  0.291665 *   0.93635    1.000000    
    291 O     c    0.500000 *  0.388890 *  0.458335 *   0.93635    1.000000    
    292 O     c    0.700000 *  0.722223 *  0.958335 *   0.93635    1.000000    
    293 O     c    0.200000 *  0.555557 *  0.708335 *   0.93635    1.000000    
    294 O     c    0.400000 *  0.555557 *  0.958335 *   0.93635    1.000000    
    295 O     c    0.200000 *  0.555557 *  0.208335 *   0.93635    1.000000    
    296 O     c    0.400000 *  0.000000 *  0.625000 *   0.93635    1.000000    
    297 O     c    0.900000 *  0.055557 *  0.958335 *   0.93635    1.000000    
    298 O     c    0.000000 *  0.222223 *  0.708335 *   0.93635    1.000000    
    299 O     c    0.700000 *  0.500000 *  0.875000 *   0.93635    1.000000    
    300 O     c    0.600000 *  0.555557 *  0.958335 *   0.93635    1.000000    
    301 O     c    0.600000 *  0.666667 *  0.125000 *   0.93635    1.000000    
    302 O     c    0.400000 *  0.666667 *  0.625000 *   0.93635    1.000000    
    303 O     c    0.600000 *  0.555557 *  0.208335 *   0.93635    1.000000    
    304 O     c    0.200000 *  0.333333 *  0.125000 *   0.93635    1.000000    
    305 O     c    0.100000 *  0.722223 *  0.958335 *   0.93635    1.000000    
    306 O     c    0.700000 *  0.277777 *  0.791665 *   0.93635    1.000000    
    307 O     c    0.200000 *  0.222223 *  0.958335 *   0.93635    1.000000    
    308 O     c    0.300000 *  0.166667 *  0.125000 *   0.93635    1.000000    
    309 O     c    0.600000 *  0.000000 *  0.125000 *   0.93635    1.000000    
    310 O     c    0.300000 *  0.277777 *  0.791665 *   0.93635    1.000000    
    311 O     c    0.700000 *  0.277777 *  0.541665 *   0.93635    1.000000    
    312 O     c    0.100000 *  0.277777 *  0.541665 *   0.93635    1.000000    
    313 O     c    0.500000 *  0.722223 *  0.208335 *   0.93635    1.000000    
    314 O     c    0.900000 *  0.944443 *  0.041665 *   0.93635    1.000000    
    315 O     c    0.600000 *  0.888890 *  0.458335 *   0.93635    1.000000    
    316 O     c    0.400000 *  0.333333 *  0.625000 *   0.93635    1.000000    
    317 O     c    0.100000 *  0.055557 *  0.708335 *   0.93635    1.000000    
    318 O     c    0.500000 *  0.277777 *  0.291665 *   0.93635    1.000000    
    319 O     c    0.300000 *  0.833333 *  0.625000 *   0.93635    1.000000    
    320 O     c    0.100000 *  0.944443 *  0.041665 *   0.93635    1.000000    
    321 O     c    0.000000 *  0.111110 *  0.791665 *   0.93635    1.000000    
    322 O     c    0.100000 *  0.277777 *  0.791665 *   0.93635    1.000000    
    323 O     c    0.700000 *  0.055557 *  0.458335 *   0.93635    1.000000    
    324 O     c    0.500000 *  0.166667 *  0.125000 *   0.93635    1.000000    
    325 O     c    0.400000 *  0.666667 *  0.875000 *   0.93635    1.000000    
    326 O     c    0.900000 *  0.166667 *  0.125000 *   0.93635    1.000000    
    327 O     c    0.900000 *  0.500000 *  0.375000 *   0.93635    1.000000    
    328 O     c    0.100000 *  0.500000 *  0.125000 *   0.93635    1.000000    
    329 O     c    0.400000 *  0.555557 *  0.708335 *   0.93635    1.000000    
    330 O     c    0.700000 *  0.166667 *  0.125000 *   0.93635    1.000000    
    331 O     c    0.300000 *  0.055557 *  0.708335 *   0.93635    1.000000    
    332 O     c    0.800000 *  0.666667 *  0.875000 *   0.93635    1.000000    
    333 O     c    0.900000 *  0.944443 *  0.791665 *   0.93635    1.000000    
    334 O     c    0.100000 *  0.722223 *  0.708335 *   0.93635    1.000000    
    335 O     c    0.300000 *  0.944443 *  0.291665 *   0.93635    1.000000    
    336 O     c    0.600000 *  0.333333 *  0.375000 *   0.93635    1.000000    
    337 O     c    0.500000 *  0.833333 *  0.375000 *   0.93635    1.000000    
    338 O     c    0.300000 *  0.722223 *  0.958335 *   0.93635    1.000000    
    339 O     c    0.300000 *  0.055557 *  0.958335 *   0.93635    1.000000    
    340 O     c    0.700000 *  0.611110 *  0.541665 *   0.93635    1.000000    
    341 O     c    0.400000 *  0.111110 *  0.041665 *   0.93635    1.000000    
    342 O     c    0.000000 *  0.333333 *  0.125000 *   0.93635    1.000000    
    343 O     c    0.300000 *  0.277777 *  0.541665 *   0.93635    1.000000    
    344 O     c    0.700000 *  0.944443 *  0.791665 *   0.93635    1.000000    
    345 O     c    0.900000 *  0.055557 *  0.208335 *   0.93635    1.000000    
    346 O     c    0.600000 *  0.444443 *  0.541665 *   0.93635    1.000000    
    347 O     c    0.300000 *  0.500000 *  0.625000 *   0.93635    1.000000    
    348 O     c    0.700000 *  0.055557 *  0.708335 *   0.93635    1.000000    
    349 O     c    0.400000 *  0.444443 *  0.291665 *   0.93635    1.000000    
    350 O     c    0.300000 *  0.166667 *  0.375000 *   0.93635    1.000000    
    351 O     c    0.100000 *  0.500000 *  0.625000 *   0.93635    1.000000    
    352 O     c    0.700000 *  0.833333 *  0.625000 *   0.93635    1.000000    
    353 O     c    0.900000 *  0.722223 *  0.958335 *   0.93635    1.000000    
    354 O     c    0.900000 *  0.388890 *  0.958335 *   0.93635    1.000000    
    355 O     c    0.800000 *  0.888890 *  0.708335 *   0.93635    1.000000    
    356 O     c    0.500000 *  0.500000 *  0.125000 *   0.93635    1.000000    
    357 O     c    0.900000 *  0.166667 *  0.375000 *   0.93635    1.000000    
    358 O     c    0.700000 *  0.055557 *  0.958335 *   0.93635    1.000000    
    359 O     c    0.800000 *  0.111110 *  0.541665 *   0.93635    1.000000    
    360 O     c    0.200000 *  0.777777 *  0.541665 *   0.93635    1.000000    
    361 O     c    0.500000 *  0.166667 *  0.375000 *   0.93635    1.000000    
    362 O     c    0.500000 *  0.944443 *  0.541665 *   0.93635    1.000000    
    363 O     c    0.200000 *  0.111110 *  0.291665 *   0.93635    1.000000    
    364 O     c    0.100000 *  0.166667 *  0.625000 *   0.93635    1.000000    
    365 O     c    0.500000 *  0.055557 *  0.208335 *   0.93635    1.000000    
    366 O     c    0.400000 *  0.777777 *  0.291665 *   0.93635    1.000000    
    367 O     c    0.200000 *  0.777777 *  0.791665 *   0.93635    1.000000    
    368 O     c    0.600000 *  0.444443 *  0.041665 *   0.93635    1.000000    
    369 O     c    0.100000 *  0.833333 *  0.875000 *   0.93635    1.000000    
    370 O     c    0.900000 *  0.611110 *  0.041665 *   0.93635    1.000000    
    371 O     c    0.400000 *  0.222223 *  0.458335 *   0.93635    1.000000    
    372 O     c    0.800000 *  0.777777 *  0.041665 *   0.93635    1.000000    
    373 O     c    0.000000 *  0.444443 *  0.791665 *   0.93635    1.000000    
    374 O     c    0.300000 *  0.055557 *  0.208335 *   0.93635    1.000000    
    375 O     c    0.200000 *  0.000000 *  0.625000 *   0.93635    1.000000    
    376 O     c    0.700000 *  0.722223 *  0.208335 *   0.93635    1.000000    
    377 O     c    0.800000 *  0.555557 *  0.458335 *   0.93635    1.000000    
    378 O     c    0.900000 *  0.277777 *  0.041665 *   0.93635    1.000000    
    379 O     c    0.300000 *  0.722223 *  0.208335 *   0.93635    1.000000    
    380 O     c    0.000000 *  0.333333 *  0.375000 *   0.93635    1.000000    
    381 O     c    0.000000 *  0.666667 *  0.375000 *   0.93635    1.000000    
    382 O     c    0.800000 *  0.666667 *  0.625000 *   0.93635    1.000000    
    383 O     c    0.400000 *  0.111110 *  0.291665 *   0.93635    1.000000    
    384 O     c    0.800000 *  0.777777 *  0.291665 *   0.93635    1.000000    
    385 O     c    0.400000 *  0.111110 *  0.791665 *   0.93635    1.000000    
    386 O     c    0.900000 *  0.722223 *  0.708335 *   0.93635    1.000000    
    387 O     c    0.300000 *  0.611110 *  0.041665 *   0.93635    1.000000    
    388 O     c    0.700000 *  0.833333 *  0.875000 *   0.93635    1.000000    
    389 O     c    0.600000 *  0.777777 *  0.291665 *   0.93635    1.000000    
    390 O     c    0.100000 *  0.166667 *  0.125000 *   0.93635    1.000000    
    391 O     c    0.100000 *  0.833333 *  0.125000 *   0.93635    1.000000    
    392 O     c    0.500000 *  0.500000 *  0.875000 *   0.93635    1.000000    
    393 O     c    0.400000 *  0.555557 *  0.208335 *   0.93635    1.000000    
    394 O     c    0.000000 *  0.666667 *  0.875000 *   0.93635    1.000000    
    395 O     c    0.200000 *  0.111110 *  0.791665 *   0.93635    1.000000    
    396 O     c    0.900000 *  0.277777 *  0.291665 *   0.93635    1.000000    
    397 O     c    0.700000 *  0.500000 *  0.125000 *   0.93635    1.000000    
    398 O     c    0.000000 *  0.333333 *  0.625000 *   0.93635    1.000000    
    399 O     c    0.900000 *  0.388890 *  0.208335 *   0.93635    1.000000    
    400 O     c    0.900000 *  0.277777 *  0.541665 *   0.93635    1.000000    
    401 O     c    0.500000 *  0.388890 *  0.958335 *   0.93635    1.000000    
    402 O     c    0.900000 *  0.944443 *  0.541665 *   0.93635    1.000000    
    403 O     c    0.800000 *  0.333333 *  0.375000 *   0.93635    1.000000    
    404 O     c    0.900000 *  0.722223 *  0.208335 *   0.93635    1.000000    
    405 O     c    0.200000 *  0.111110 *  0.041665 *   0.93635    1.000000    
    406 O     c    0.700000 *  0.611110 *  0.041665 *   0.93635    1.000000    
    407 O     c    0.700000 *  0.388890 *  0.708335 *   0.93635    1.000000    
    408 O     c    0.500000 *  0.944443 *  0.041665 *   0.93635    1.000000    
    409 O     c    0.200000 *  0.444443 *  0.541665 *   0.93635    1.000000    
    410 O     c    0.800000 *  0.888890 *  0.458335 *   0.93635    1.000000    
    411 O     c    0.000000 *  0.777777 *  0.041665 *   0.93635    1.000000    
    412 O     c    0.200000 *  0.000000 *  0.375000 *   0.93635    1.000000    
    413 O     c    0.400000 *  0.222223 *  0.208335 *   0.93635    1.000000    
    414 O     c    0.200000 *  0.666667 *  0.375000 *   0.93635    1.000000    
    415 O     c    0.500000 *  0.833333 *  0.125000 *   0.93635    1.000000    
    416 O     c    0.000000 *  0.666667 *  0.125000 *   0.93635    1.000000    
    417 O     c    0.700000 *  0.611110 *  0.291665 *   0.93635    1.000000    
    418 O     c    0.300000 *  0.833333 *  0.875000 *   0.93635    1.000000    
    419 O     c    0.700000 *  0.277777 *  0.291665 *   0.93635    1.000000    
    420 O     c    0.300000 *  0.833333 *  0.375000 *   0.93635    1.000000    
    421 O     c    0.800000 *  0.333333 *  0.625000 *   0.93635    1.000000    
    422 O     c    0.400000 *  0.777777 *  0.541665 *   0.93635    1.000000    
    423 O     c    0.000000 *  0.444443 *  0.041665 *   0.93635    1.000000    
    424 O     c    0.000000 *  0.888890 *  0.208335 *   0.93635    1.000000    
    425 O     c    0.500000 *  0.611110 *  0.041665 *   0.93635    1.000000    
    426 O     c    0.300000 *  0.611110 *  0.291665 *   0.93635    1.000000    
    427 O     c    0.600000 *  0.222223 *  0.708335 *   0.93635    1.000000    
    428 O     c    0.100000 *  0.944443 *  0.791665 *   0.93635    1.000000    
    429 O     c    0.300000 *  0.500000 *  0.875000 *   0.93635    1.000000    
    430 O     c    0.900000 *  0.833333 *  0.375000 *   0.93635    1.000000    
    431 O     c    0.200000 *  0.777777 *  0.291665 *   0.93635    1.000000    
    432 O     c    0.300000 *  0.944443 *  0.791665 *   0.93635    1.000000    
    433 O     c    0.000000 *  0.222223 *  0.208335 *   0.93635    1.000000    
    434 O     c    0.600000 *  0.333333 *  0.875000 *   0.93635    1.000000    
    435 O     c    0.800000 *  0.444443 *  0.041665 *   0.93635    1.000000    
    436 O     c    0.600000 *  0.222223 *  0.958335 *   0.93635    1.000000    
    437 O     c    0.700000 *  0.166667 *  0.625000 *   0.93635    1.000000    
    438 O     c    0.100000 *  0.055557 *  0.208335 *   0.93635    1.000000    
    439 O     c    0.000000 *  0.111110 *  0.541665 *   0.93635    1.000000    
    440 O     c    0.600000 *  0.777777 *  0.791665 *   0.93635    1.000000    
    441 O     c    0.400000 *  0.333333 *  0.375000 *   0.93635    1.000000    
    442 O     c    0.200000 *  0.222223 *  0.458335 *   0.93635    1.000000    
    443 O     c    0.100000 *  0.833333 *  0.625000 *   0.93635    1.000000    
    444 O     c    0.700000 *  0.722223 *  0.708335 *   0.93635    1.000000    
    445 O     c    0.500000 *  0.277777 *  0.541665 *   0.93635    1.000000    
    446 O     c    0.100000 *  0.611110 *  0.291665 *   0.93635    1.000000    
    447 O     c    0.900000 *  0.500000 *  0.625000 *   0.93635    1.000000    
    448 O     c    0.100000 *  0.277777 *  0.291665 *   0.93635    1.000000    
    449 O     c    0.300000 *  0.500000 *  0.125000 *   0.93635    1.000000    
    450 O     c    0.700000 *  0.722223 *  0.458335 *   0.93635    1.000000    
    451 O     c    0.300000 *  0.388890 *  0.458335 *   0.93635    1.000000    
    452 O     c    0.300000 *  0.944443 *  0.041665 *   0.93635    1.000000    
    453 O     c    0.300000 *  0.277777 *  0.041665 *   0.93635    1.000000    
    454 O     c    0.200000 *  0.444443 *  0.291665 *   0.93635    1.000000    
    455 O     c    0.200000 *  0.444443 *  0.041665 *   0.93635    1.000000    
    456 O     c    0.900000 *  0.166667 *  0.875000 *   0.93635    1.000000    
    457 O     c    0.300000 *  0.722223 *  0.708335 *   0.93635    1.000000    
    458 O     c    0.000000 *  0.444443 *  0.291665 *   0.93635    1.000000    
    459 O     c    0.100000 *  0.944443 *  0.291665 *   0.93635    1.000000    
    460 O     c    0.700000 *  0.500000 *  0.625000 *   0.93635    1.000000    
    461 O     c    0.800000 *  0.333333 *  0.875000 *   0.93635    1.000000    
    462 O     c    0.800000 *  0.777777 *  0.791665 *   0.93635    1.000000    
    463 O     c    0.200000 *  0.000000 *  0.875000 *   0.93635    1.000000    
    464 O     c    0.500000 *  0.388890 *  0.708335 *   0.93635    1.000000    
    465 O     c    0.700000 *  0.944443 *  0.541665 *   0.93635    1.000000    
    466 O     c    0.800000 *  0.444443 *  0.791665 *   0.93635    1.000000    
    467 O     c    0.000000 *  0.555557 *  0.708335 *   0.93635    1.000000    
    468 O     c    0.500000 *  0.055557 *  0.458335 *   0.93635    1.000000    
    469 O     c    0.100000 *  0.722223 *  0.208335 *   0.93635    1.000000    
    470 O     c    0.900000 *  0.055557 *  0.708335 *   0.93635    1.000000    
    471 O     c    0.600000 *  0.111110 *  0.041665 *   0.93635    1.000000    
    472 O     c    0.500000 *  0.722223 *  0.958335 *   0.93635    1.000000    
    473 O     c    0.300000 *  0.166667 *  0.625000 *   0.93635    1.000000    
    474 O     c    0.600000 *  0.111110 *  0.541665 *   0.93635    1.000000    
    475 O     c    0.700000 *  0.166667 *  0.875000 *   0.93635    1.000000    
    476 O     c    0.100000 *  0.611110 *  0.541665 *   0.93635    1.000000    
    477 O     c    0.900000 *  0.388890 *  0.708335 *   0.93635    1.000000    
    478 O     c    0.900000 *  0.833333 *  0.125000 *   0.93635    1.000000    
    479 O     c    0.800000 *  0.555557 *  0.708335 *   0.93635    1.000000    
    480 O     c    0.800000 *  0.000000 *  0.375000 *   0.93635    1.000000    
    481 O     c    0.400000 *  0.333333 *  0.125000 *   0.93635    1.000000    
    482 O     c    0.600000 *  0.333333 *  0.125000 *   0.93635    1.000000    
    483 O     c    0.100000 *  0.722223 *  0.458335 *   0.93635    1.000000    
    484 O     c    0.100000 *  0.388890 *  0.708335 *   0.93635    1.000000    
    485 O     c    0.700000 *  0.388890 *  0.958335 *   0.93635    1.000000    
    486 O     c    0.900000 *  0.500000 *  0.875000 *   0.93635    1.000000    
    487 O     c    0.700000 *  0.388890 *  0.208335 *   0.93635    1.000000    
    488 O     c    0.200000 *  0.888890 *  0.208335 *   0.93635    1.000000    
    489 O     c    0.400000 *  0.555557 *  0.458335 *   0.93635    1.000000    
    490 O     c    0.400000 *  0.444443 *  0.041665 *   0.93635    1.000000    
    491 O     c    0.000000 *  0.777777 *  0.541665 *   0.93635    1.000000    
    492 O     c    0.100000 *  0.388890 *  0.208335 *   0.93635    1.000000    
    493 O     c    0.700000 *  0.055557 *  0.208335 *   0.93635    1.000000    
    494 O     c    0.400000 *  0.666667 *  0.375000 *   0.93635    1.000000    
    495 O     c    0.600000 *  0.888890 *  0.208335 *   0.93635    1.000000    
    496 O     c    0.400000 *  0.888890 *  0.208335 *   0.93635    1.000000    
    497 O     c    0.400000 *  0.888890 *  0.708335 *   0.93635    1.000000    
    498 O     c    0.200000 *  0.444443 *  0.791665 *   0.93635    1.000000    
    499 O     c    0.900000 *  0.611110 *  0.291665 *   0.93635    1.000000    
    500 O     c    0.200000 *  0.888890 *  0.958335 *   0.93635    1.000000    
    501 O     c    0.100000 *  0.166667 *  0.875000 *   0.93635    1.000000    
    502 O     c    0.600000 *  0.555557 *  0.458335 *   0.93635    1.000000    
    503 O     c    0.600000 *  0.000000 *  0.625000 *   0.93635    1.000000    
    504 O     c    0.500000 *  0.611110 *  0.291665 *   0.93635    1.000000    
    505 O     c    0.100000 *  0.500000 *  0.375000 *   0.93635    1.000000    
    506 O     c    0.900000 *  0.833333 *  0.625000 *   0.93635    1.000000    
    507 O     c    0.200000 *  0.666667 *  0.625000 *   0.93635    1.000000    
    508 O     c    0.300000 *  0.055557 *  0.458335 *   0.93635    1.000000    
    509 O     c    0.000000 *  0.888890 *  0.958335 *   0.93635    1.000000    
    510 O     c    0.800000 *  0.666667 *  0.125000 *   0.93635    1.000000    
    511 O     c    0.200000 *  0.222223 *  0.708335 *   0.93635    1.000000    
    512 O     c    0.700000 *  0.944443 *  0.291665 *   0.93635    1.000000    
    513 O     c    0.800000 *  0.555557 *  0.208335 *   0.93635    1.000000    
    514 O     c    0.600000 *  0.666667 *  0.375000 *   0.93635    1.000000    
    515 O     c    0.600000 *  0.444443 *  0.791665 *   0.93635    1.000000    
    516 O     c    0.500000 *  0.388890 *  0.208335 *   0.93635    1.000000    
    517 O     c    0.200000 *  0.000000 *  0.125000 *   0.93635    1.000000    
    518 O     c    0.800000 *  0.000000 *  0.875000 *   0.93635    1.000000    
    519 O     c    0.500000 *  0.055557 *  0.708335 *   0.93635    1.000000    
    520 O     c    0.800000 *  0.333333 *  0.125000 *   0.93635    1.000000    
    521 O     c    0.400000 *  0.444443 *  0.791665 *   0.93635    1.000000    
    522 O     c    0.100000 *  0.944443 *  0.541665 *   0.93635    1.000000    
    523 O     c    0.400000 *  0.222223 *  0.958335 *   0.93635    1.000000    
    524 O     c    0.500000 *  0.166667 *  0.875000 *   0.93635    1.000000    
    525 O     c    0.600000 *  0.222223 *  0.458335 *   0.93635    1.000000    
    526 O     c    0.500000 *  0.277777 *  0.791665 *   0.93635    1.000000    
    527 O     c    0.200000 *  0.222223 *  0.208335 *   0.93635    1.000000    
    528 O     c    0.600000 *  0.222223 *  0.208335 *   0.93635    1.000000    
    529 O     c    0.000000 *  0.111110 *  0.291665 *   0.93635    1.000000    
    530 O     c    0.000000 *  0.555557 *  0.958335 *   0.93635    1.000000    
    531 O     c    0.800000 *  0.000000 *  0.125000 *   0.93635    1.000000    
    532 O     c    0.400000 *  0.000000 *  0.375000 *   0.93635    1.000000    
    533 O     c    0.400000 *  0.111110 *  0.541665 *   0.93635    1.000000    
    534 O     c    0.400000 *  0.444443 *  0.541665 *   0.93635    1.000000    
    535 O     c    0.600000 *  0.888890 *  0.708335 *   0.93635    1.000000    
    536 O     c    0.400000 *  0.333333 *  0.875000 *   0.93635    1.000000    
    537 O     c    0.900000 *  0.500000 *  0.125000 *   0.93635    1.000000    
    538 O     c    0.000000 *  0.777777 *  0.291665 *   0.93635    1.000000    
    539 O     c    0.400000 *  0.888890 *  0.958335 *   0.93635    1.000000    
    540 La    s    0.200000 *  0.666667 *  0.000000 *   9.94525    1.000000    
    541 La    s    0.200000 *  0.222223 *  0.333335 *   9.94525    1.000000    
    542 Ce    s    0.800000 *  0.888890 *  0.833335 *  13.85000    1.000000    
    543 Ce    s    0.500000 *  0.833333 *  0.000000 *  13.85000    1.000000    
    544 Ce    s    0.800000 *  0.777777 *  0.166665 *  13.85000    1.000000    
    545 Ce    s    0.600000 *  0.222223 *  0.833335 *  13.85000    1.000000    
    546 Ce    s    0.000000 *  0.000000 *  0.000000 *  13.85000    1.000000    
    547 Ce    s    0.000000 *  0.333333 *  0.000000 *  13.85000    1.000000    
    548 Ce    s    0.200000 *  0.222223 *  0.833335 *  13.85000    1.000000    
    549 Ce    s    0.200000 *  0.333333 *  0.000000 *  13.85000    1.000000    
    550 Ce    s    0.500000 *  0.277777 *  0.666665 *  13.85000    1.000000    
    551 Ce    s    0.600000 *  0.222223 *  0.333335 *  13.85000    1.000000    
    552 Ce    s    0.900000 *  0.611110 *  0.166665 *  13.85000    1.000000    
    553 Ce    s    0.100000 *  0.722223 *  0.833335 *  13.85000    1.000000    
    554 Ce    s    0.900000 *  0.277777 *  0.166665 *  13.85000    1.000000    
    555 Ce    s    0.800000 *  0.555557 *  0.333335 *  13.85000    1.000000    
    556 Ce    s    0.500000 *  0.500000 *  0.500000 *  13.85000    1.000000    
    557 Ce    s    0.300000 *  0.166667 *  0.000000 *  13.85000    1.000000    
    558 Ce    s    0.300000 *  0.944443 *  0.166665 *  13.85000    1.000000    
    559 Ce    s    0.800000 *  0.444443 *  0.666665 *  13.85000    1.000000    
    560 Ce    s    0.800000 *  0.000000 *  0.500000 *  13.85000    1.000000    
    561 Ce    s    0.400000 *  0.000000 *  0.500000 *  13.85000    1.000000    
    562 Ce    s    0.000000 *  0.333333 *  0.500000 *  13.85000    1.000000    
    563 Ce    s    0.200000 *  0.666667 *  0.500000 *  13.85000    1.000000    
    564 Ce    s    0.500000 *  0.277777 *  0.166665 *  13.85000    1.000000    
    565 Ce    s    0.700000 *  0.833333 *  0.000000 *  13.85000    1.000000    
    566 Ce    s    0.400000 *  0.888890 *  0.833335 *  13.85000    1.000000    
    567 Ce    s    0.900000 *  0.166667 *  0.500000 *  13.85000    1.000000    
    568 Ce    s    0.900000 *  0.277777 *  0.666665 *  13.85000    1.000000    
    569 Ce    s    0.800000 *  0.888890 *  0.333335 *  13.85000    1.000000    
    570 Ce    s    0.400000 *  0.444443 *  0.666665 *  13.85000    1.000000    
    571 Ce    s    0.100000 *  0.722223 *  0.333335 *  13.85000    1.000000    
    572 Ce    s    0.000000 *  0.555557 *  0.333335 *  13.85000    1.000000    
    573 Ce    s    0.300000 *  0.722223 *  0.833335 *  13.85000    1.000000    
    574 Ce    s    0.700000 *  0.833333 *  0.500000 *  13.85000    1.000000    
    575 Ce    s    0.700000 *  0.277777 *  0.166665 *  13.85000    1.000000    
    576 Ce    s    0.400000 *  0.666667 *  0.500000 *  13.85000    1.000000    
    577 Ce    s    0.000000 *  0.666667 *  0.500000 *  13.85000    1.000000    
    578 Ce    s    0.600000 *  0.888890 *  0.333335 *  13.85000    1.000000    
    579 Ce    s    0.200000 *  0.444443 *  0.666665 *  13.85000    1.000000    
    580 Ce    s    0.900000 *  0.388890 *  0.333335 *  13.85000    1.000000    
    581 Ce    s    0.100000 *  0.944443 *  0.666665 *  13.85000    1.000000    
    582 Ce    s    0.700000 *  0.611110 *  0.666665 *  13.85000    1.000000    
    583 Ce    s    0.500000 *  0.055557 *  0.333335 *  13.85000    1.000000    
    584 Ce    s    0.000000 *  0.555557 *  0.833335 *  13.85000    1.000000    
    585 Ce    s    0.800000 *  0.444443 *  0.166665 *  13.85000    1.000000    
    586 Ce    s    0.900000 *  0.500000 *  0.000000 *  13.85000    1.000000    
    587 Ce    s    0.600000 *  0.666667 *  0.500000 *  13.85000    1.000000    
    588 Ce    s    0.900000 *  0.722223 *  0.333335 *  13.85000    1.000000    
    589 Ce    s    0.200000 *  0.777777 *  0.166665 *  13.85000    1.000000    
    590 Ce    s    0.500000 *  0.166667 *  0.500000 *  13.85000    1.000000    
    591 Ce    s    0.900000 *  0.388890 *  0.833335 *  13.85000    1.000000    
    592 Ce    s    0.000000 *  0.222223 *  0.833335 *  13.85000    1.000000    
    593 Ce    s    0.000000 *  0.111110 *  0.166665 *  13.85000    1.000000    
    594 Ce    s    0.200000 *  0.111110 *  0.166665 *  13.85000    1.000000    
    595 Ce    s    0.000000 *  0.222223 *  0.333335 *  13.85000    1.000000    
    596 Ce    s    0.100000 *  0.166667 *  0.000000 *  13.85000    1.000000    
    597 Ce    s    0.000000 *  0.777777 *  0.166665 *  13.85000    1.000000    
    598 Ce    s    0.800000 *  0.777777 *  0.666665 *  13.85000    1.000000    
    599 Ce    s    0.900000 *  0.722223 *  0.833335 *  13.85000    1.000000    
    600 Ce    s    0.900000 *  0.500000 *  0.500000 *  13.85000    1.000000    
    601 Ce    s    0.600000 *  0.333333 *  0.000000 *  13.85000    1.000000    
    602 Ce    s    0.600000 *  0.111110 *  0.166665 *  13.85000    1.000000    
    603 Ce    s    0.100000 *  0.500000 *  0.500000 *  13.85000    1.000000    
    604 Ce    s    0.700000 *  0.166667 *  0.000000 *  13.85000    1.000000    
    605 Ce    s    0.700000 *  0.944443 *  0.166665 *  13.85000    1.000000    
    606 Ce    s    0.200000 *  0.555557 *  0.333335 *  13.85000    1.000000    
    607 Ce    s    0.500000 *  0.833333 *  0.500000 *  13.85000    1.000000    
    608 Ce    s    0.200000 *  0.333333 *  0.500000 *  13.85000    1.000000    
    609 Ce    s    0.600000 *  0.555557 *  0.833335 *  13.85000    1.000000    
    610 Ce    s    0.500000 *  0.055557 *  0.833335 *  13.85000    1.000000    
    611 Ce    s    0.300000 *  0.833333 *  0.500000 *  13.85000    1.000000    
    612 Ce    s    0.400000 *  0.777777 *  0.666665 *  13.85000    1.000000    
    613 Ce    s    0.200000 *  0.777777 *  0.666665 *  13.85000    1.000000    
    614 Ce    s    0.800000 *  0.222223 *  0.833335 *  13.85000    1.000000    
    615 Ce    s    0.400000 *  0.222223 *  0.333335 *  13.85000    1.000000    
    616 Ce    s    0.100000 *  0.944443 *  0.166665 *  13.85000    1.000000    
    617 Ce    s    0.000000 *  0.444443 *  0.166665 *  13.85000    1.000000    
    618 Ce    s    0.200000 *  0.000000 *  0.500000 *  13.85000    1.000000    
    619 Ce    s    0.200000 *  0.444443 *  0.166665 *  13.85000    1.000000    
    620 Ce    s    0.300000 *  0.944443 *  0.666665 *  13.85000    1.000000    
    621 Ce    s    0.200000 *  0.555557 *  0.833335 *  13.85000    1.000000    
    622 Ce    s    0.400000 *  0.888890 *  0.333335 *  13.85000    1.000000    
    623 Ce    s    0.100000 *  0.611110 *  0.666665 *  13.85000    1.000000    
    624 Ce    s    0.900000 *  0.944443 *  0.666665 *  13.85000    1.000000    
    625 Ce    s    0.700000 *  0.388890 *  0.333335 *  13.85000    1.000000    
    626 Ce    s    0.400000 *  0.666667 *  0.000000 *  13.85000    1.000000    
    627 Ce    s    0.500000 *  0.166667 *  0.000000 *  13.85000    1.000000    
    628 Ce    s    0.000000 *  0.000000 *  0.500000 *  13.85000    1.000000    
    629 Ce    s    0.300000 *  0.277777 *  0.166665 *  13.85000    1.000000    
    630 Ce    s    0.700000 *  0.500000 *  0.500000 *  13.85000    1.000000    
    631 Ce    s    0.500000 *  0.722223 *  0.333335 *  13.85000    1.000000    
    632 Ce    s    0.300000 *  0.388890 *  0.333335 *  13.85000    1.000000    
    633 Ce    s    0.900000 *  0.055557 *  0.333335 *  13.85000    1.000000    
    634 Ce    s    0.600000 *  0.555557 *  0.333335 *  13.85000    1.000000    
    635 Ce    s    0.100000 *  0.277777 *  0.666665 *  13.85000    1.000000    
    636 Ce    s    0.200000 *  0.888890 *  0.833335 *  13.85000    1.000000    
    637 Ce    s    0.200000 *  0.888890 *  0.333335 *  13.85000    1.000000    
    638 Ce    s    0.500000 *  0.944443 *  0.666665 *  13.85000    1.000000    
    639 Ce    s    0.500000 *  0.388890 *  0.333335 *  13.85000    1.000000    
    640 Ce    s    0.300000 *  0.166667 *  0.500000 *  13.85000    1.000000    
    641 Ce    s    0.100000 *  0.500000 *  0.000000 *  13.85000    1.000000    
    642 Ce    s    0.800000 *  0.666667 *  0.000000 *  13.85000    1.000000    
    643 Ce    s    0.500000 *  0.388890 *  0.833335 *  13.85000    1.000000    
    644 Ce    s    0.400000 *  0.555557 *  0.333335 *  13.85000    1.000000    
    645 Ce    s    0.800000 *  0.222223 *  0.333335 *  13.85000    1.000000    
    646 Ce    s    0.300000 *  0.722223 *  0.333335 *  13.85000    1.000000    
    647 Ce    s    0.600000 *  0.444443 *  0.666665 *  13.85000    1.000000    
    648 Ce    s    0.900000 *  0.611110 *  0.666665 *  13.85000    1.000000    
    649 Ce    s    0.800000 *  0.111110 *  0.666665 *  13.85000    1.000000    
    650 Ce    s    0.800000 *  0.333333 *  0.000000 *  13.85000    1.000000    
    651 Ce    s    0.100000 *  0.611110 *  0.166665 *  13.85000    1.000000    
    652 Ce    s    0.100000 *  0.388890 *  0.333335 *  13.85000    1.000000    
    653 Ce    s    0.900000 *  0.833333 *  0.000000 *  13.85000    1.000000    
    654 Ce    s    0.700000 *  0.388890 *  0.833335 *  13.85000    1.000000    
    655 Ce    s    0.600000 *  0.000000 *  0.000000 *  13.85000    1.000000    
    656 Ce    s    0.500000 *  0.500000 *  0.000000 *  13.85000    1.000000    
    657 Ce    s    0.300000 *  0.611110 *  0.166665 *  13.85000    1.000000    
    658 Ce    s    0.500000 *  0.611110 *  0.166665 *  13.85000    1.000000    
    659 Ce    s    0.300000 *  0.388890 *  0.833335 *  13.85000    1.000000    
    660 Ce    s    0.700000 *  0.944443 *  0.666665 *  13.85000    1.000000    
    661 Ce    s    0.600000 *  0.888890 *  0.833335 *  13.85000    1.000000    
    662 Ce    s    0.600000 *  0.777777 *  0.666665 *  13.85000    1.000000    
    663 Ce    s    0.600000 *  0.777777 *  0.166665 *  13.85000    1.000000    
    664 Ce    s    0.100000 *  0.277777 *  0.166665 *  13.85000    1.000000    
    665 Ce    s    0.500000 *  0.722223 *  0.833335 *  13.85000    1.000000    
    666 Ce    s    0.600000 *  0.666667 *  0.000000 *  13.85000    1.000000    
    667 Ce    s    0.900000 *  0.055557 *  0.833335 *  13.85000    1.000000    
    668 Ce    s    0.300000 *  0.500000 *  0.000000 *  13.85000    1.000000    
    669 Ce    s    0.300000 *  0.500000 *  0.500000 *  13.85000    1.000000    
    670 Ce    s    0.800000 *  0.666667 *  0.500000 *  13.85000    1.000000    
    671 Ce    s    0.400000 *  0.333333 *  0.500000 *  13.85000    1.000000    
    672 Ce    s    0.700000 *  0.722223 *  0.833335 *  13.85000    1.000000    
    673 Ce    s    0.300000 *  0.055557 *  0.833335 *  13.85000    1.000000    
    674 Ce    s    0.700000 *  0.277777 *  0.666665 *  13.85000    1.000000    
    675 Ce    s    0.700000 *  0.500000 *  0.000000 *  13.85000    1.000000    
    676 Ce    s    0.200000 *  0.000000 *  0.000000 *  13.85000    1.000000    
    677 Ce    s    0.100000 *  0.166667 *  0.500000 *  13.85000    1.000000    
    678 Ce    s    0.900000 *  0.833333 *  0.500000 *  13.85000    1.000000    
    679 Ce    s    0.800000 *  0.111110 *  0.166665 *  13.85000    1.000000    
    680 Ce    s    0.500000 *  0.611110 *  0.666665 *  13.85000    1.000000    
    681 Ce    s    0.000000 *  0.777777 *  0.666665 *  13.85000    1.000000    
    682 Ce    s    0.400000 *  0.333333 *  0.000000 *  13.85000    1.000000    
    683 Ce    s    0.100000 *  0.388890 *  0.833335 *  13.85000    1.000000    
    684 Ce    s    0.400000 *  0.111110 *  0.666665 *  13.85000    1.000000    
    685 Ce    s    0.600000 *  0.000000 *  0.500000 *  13.85000    1.000000    
    686 Ce    s    0.100000 *  0.833333 *  0.500000 *  13.85000    1.000000    
    687 Ce    s    0.100000 *  0.833333 *  0.000000 *  13.85000    1.000000    
    688 Ce    s    0.700000 *  0.055557 *  0.833335 *  13.85000    1.000000    
    689 Ce    s    0.700000 *  0.722223 *  0.333335 *  13.85000    1.000000    
    690 Ce    s    0.600000 *  0.111110 *  0.666665 *  13.85000    1.000000    
    691 Ce    s    0.700000 *  0.166667 *  0.500000 *  13.85000    1.000000    
    692 Ce    s    0.800000 *  0.333333 *  0.500000 *  13.85000    1.000000    
    693 Ce    s    0.000000 *  0.666667 *  0.000000 *  13.85000    1.000000    
    694 Ce    s    0.400000 *  0.444443 *  0.166665 *  13.85000    1.000000    
    695 Ce    s    0.400000 *  0.555557 *  0.833335 *  13.85000    1.000000    
    696 Ce    s    0.500000 *  0.944443 *  0.166665 *  13.85000    1.000000    
    697 Ce    s    0.900000 *  0.944443 *  0.166665 *  13.85000    1.000000    
    698 Ce    s    0.400000 *  0.222223 *  0.833335 *  13.85000    1.000000    
    699 Ce    s    0.000000 *  0.888890 *  0.833335 *  13.85000    1.000000    
    700 Ce    s    0.400000 *  0.000000 *  0.000000 *  13.85000    1.000000    
    701 Ce    s    0.800000 *  0.555557 *  0.833335 *  13.85000    1.000000    
    702 Ce    s    0.400000 *  0.111110 *  0.166665 *  13.85000    1.000000    
    703 Ce    s    0.900000 *  0.166667 *  0.000000 *  13.85000    1.000000    
    704 Ce    s    0.700000 *  0.611110 *  0.166665 *  13.85000    1.000000    
    705 Ce    s    0.000000 *  0.444443 *  0.666665 *  13.85000    1.000000    
    706 Ce    s    0.700000 *  0.055557 *  0.333335 *  13.85000    1.000000    
    707 Ce    s    0.300000 *  0.055557 *  0.333335 *  13.85000    1.000000    
    708 Ce    s    0.000000 *  0.888890 *  0.333335 *  13.85000    1.000000    
    709 Ce    s    0.000000 *  0.111110 *  0.666665 *  13.85000    1.000000    
    710 Ce    s    0.600000 *  0.333333 *  0.500000 *  13.85000    1.000000    
    711 Ce    s    0.200000 *  0.111110 *  0.666665 *  13.85000    1.000000    
    712 Ce    s    0.800000 *  0.000000 *  0.000000 *  13.85000    1.000000    
    713 Ce    s    0.300000 *  0.611110 *  0.666665 *  13.85000    1.000000    
    714 Ce    s    0.100000 *  0.055557 *  0.833335 *  13.85000    1.000000    
    715 Ce    s    0.600000 *  0.444443 *  0.166665 *  13.85000    1.000000    
    716 Ce    s    0.400000 *  0.777777 *  0.166665 *  13.85000    1.000000    
    717 Ce    s    0.300000 *  0.277777 *  0.666665 *  13.85000    1.000000    
    718 Ce    s    0.300000 *  0.833333 *  0.000000 *  13.85000    1.000000    
    719 Ce    s    0.100000 *  0.055557 *  0.333335 *  13.85000    1.000000    
    720 O     s    0.300000 *  0.722223 *  0.458335 *  -2.93634    1.000000    
    721 O     s    0.200000 *  0.555557 *  0.458335 *  -2.93634    1.000000    
    722 O     s    0.100000 *  0.388890 *  0.958335 *  -2.93634    1.000000    
    723 O     s    0.000000 *  0.777777 *  0.791665 *  -2.93634    1.000000    
    724 O     s    0.600000 *  0.000000 *  0.875000 *  -2.93634    1.000000    
    725 O     s    0.800000 *  0.888890 *  0.958335 *  -2.93634    1.000000    
    726 O     s    0.800000 *  0.000000 *  0.625000 *  -2.93634    1.000000    
    727 O     s    0.500000 *  0.277777 *  0.041665 *  -2.93634    1.000000    
    728 O     s    0.200000 *  0.666667 *  0.125000 *  -2.93634    1.000000    
    729 O     s    0.900000 *  0.722223 *  0.458335 *  -2.93634    1.000000    
    730 O     s    0.100000 *  0.055557 *  0.458335 *  -2.93634    1.000000    
    731 O     s    0.500000 *  0.611110 *  0.541665 *  -2.93634    1.000000    
    732 O     s    0.200000 *  0.333333 *  0.625000 *  -2.93634    1.000000    
    733 O     s    0.600000 *  0.000000 *  0.375000 *  -2.93634    1.000000    
    734 O     s    0.300000 *  0.611110 *  0.541665 *  -2.93634    1.000000    
    735 O     s    0.100000 *  0.611110 *  0.791665 *  -2.93634    1.000000    
    736 O     s    0.000000 *  0.222223 *  0.458335 *  -2.93634    1.000000    
    737 O     s    0.700000 *  0.388890 *  0.458335 *  -2.93634    1.000000    
    738 O     s    0.600000 *  0.111110 *  0.791665 *  -2.93634    1.000000    
    739 O     s    0.800000 *  0.111110 *  0.791665 *  -2.93634    1.000000    
    740 O     s    0.000000 *  0.888890 *  0.458335 *  -2.93634    1.000000    
    741 O     s    0.000000 *  0.888890 *  0.708335 *  -2.93634    1.000000    
    742 O     s    0.600000 *  0.888890 *  0.958335 *  -2.93634    1.000000    
    743 O     s    0.700000 *  0.611110 *  0.791665 *  -2.93634    1.000000    
    744 O     s    0.500000 *  0.166667 *  0.625000 *  -2.93634    1.000000    
    745 O     s    0.100000 *  0.166667 *  0.375000 *  -2.93634    1.000000    
    746 O     s    0.000000 *  0.555557 *  0.208335 *  -2.93634    1.000000    
    747 O     s    0.800000 *  0.222223 *  0.458335 *  -2.93634    1.000000    
    748 O     s    0.400000 *  0.888890 *  0.458335 *  -2.93634    1.000000    
    749 O     s    0.200000 *  0.888890 *  0.708335 *  -2.93634    1.000000    
    750 O     s    0.200000 *  0.555557 *  0.958335 *  -2.93634    1.000000    
    751 O     s    0.400000 *  0.222223 *  0.708335 *  -2.93634    1.000000    
    752 O     s    0.000000 *  0.000000 *  0.375000 *  -2.93634    1.000000    
    753 O     s    0.600000 *  0.777777 *  0.541665 *  -2.93634    1.000000    
    754 O     s    0.800000 *  0.444443 *  0.291665 *  -2.93634    1.000000    
    755 O     s    0.000000 *  0.111110 *  0.041665 *  -2.93634    1.000000    
    756 O     s    0.800000 *  0.555557 *  0.958335 *  -2.93634    1.000000    
    757 O     s    0.100000 *  0.055557 *  0.958335 *  -2.93634    1.000000    
    758 O     s    0.400000 *  0.000000 *  0.875000 *  -2.93634    1.000000    
    759 O     s    0.800000 *  0.222223 *  0.958335 *  -2.93634    1.000000    
    760 O     s    0.000000 *  0.666667 *  0.625000 *  -2.93634    1.000000    
    761 O     s    0.700000 *  0.166667 *  0.375000 *  -2.93634    1.000000    
    762 O     s    0.500000 *  0.833333 *  0.625000 *  -2.93634    1.000000    
    763 O     s    0.300000 *  0.166667 *  0.875000 *  -2.93634    1.000000    
    764 O     s    0.700000 *  0.833333 *  0.375000 *  -2.93634    1.000000    
    765 O     s    0.900000 *  0.611110 *  0.541665 *  -2.93634    1.000000    
    766 O     s    0.800000 *  0.111110 *  0.291665 *  -2.93634    1.000000    
    767 O     s    0.400000 *  0.000000 *  0.125000 *  -2.93634    1.000000    
    768 O     s    0.700000 *  0.277777 *  0.041665 *  -2.93634    1.000000    
    769 O     s    0.600000 *  0.555557 *  0.708335 *  -2.93634    1.000000    
    770 O     s    0.700000 *  0.833333 *  0.125000 *  -2.93634    1.000000    
    771 O     s    0.000000 *  0.333333 *  0.875000 *  -2.93634    1.000000    
    772 O     s    0.300000 *  0.388890 *  0.958335 *  -2.93634    1.000000    
    773 O     s    0.000000 *  0.000000 *  0.625000 *  -2.93634    1.000000    
    774 O     s    0.600000 *  0.777777 *  0.041665 *  -2.93634    1.000000    
    775 O     s    0.700000 *  0.500000 *  0.375000 *  -2.93634    1.000000    
    776 O     s    0.900000 *  0.833333 *  0.875000 *  -2.93634    1.000000    
    777 O     s    0.800000 *  0.777777 *  0.541665 *  -2.93634    1.000000    
    778 O     s    0.000000 *  0.000000 *  0.875000 *  -2.93634    1.000000    
    779 O     s    0.400000 *  0.666667 *  0.125000 *  -2.93634    1.000000    
    780 O     s    0.800000 *  0.111110 *  0.041665 *  -2.93634    1.000000    
    781 O     s    0.200000 *  0.888890 *  0.458335 *  -2.93634    1.000000    
    782 O     s    0.600000 *  0.666667 *  0.875000 *  -2.93634    1.000000    
    783 O     s    0.800000 *  0.222223 *  0.208335 *  -2.93634    1.000000    
    784 O     s    0.100000 *  0.611110 *  0.041665 *  -2.93634    1.000000    
    785 O     s    0.500000 *  0.722223 *  0.458335 *  -2.93634    1.000000    
    786 O     s    0.300000 *  0.611110 *  0.791665 *  -2.93634    1.000000    
    787 O     s    0.900000 *  0.277777 *  0.791665 *  -2.93634    1.000000    
    788 O     s    0.200000 *  0.333333 *  0.875000 *  -2.93634    1.000000    
    789 O     s    0.900000 *  0.055557 *  0.458335 *  -2.93634    1.000000    
    790 O     s    0.900000 *  0.944443 *  0.291665 *  -2.93634    1.000000    
    791 O     s    0.500000 *  0.722223 *  0.708335 *  -2.93634    1.000000    
    792 O     s    0.100000 *  0.388890 *  0.458335 *  -2.93634    1.000000    
    793 O     s    0.800000 *  0.222223 *  0.708335 *  -2.93634    1.000000    
    794 O     s    0.400000 *  0.777777 *  0.041665 *  -2.93634    1.000000    
    795 O     s    0.500000 *  0.944443 *  0.791665 *  -2.93634    1.000000    
    796 O     s    0.300000 *  0.388890 *  0.708335 *  -2.93634    1.000000    
    797 O     s    0.200000 *  0.111110 *  0.541665 *  -2.93634    1.000000    
    798 O     s    0.600000 *  0.111110 *  0.291665 *  -2.93634    1.000000    
    799 O     s    0.100000 *  0.500000 *  0.875000 *  -2.93634    1.000000    
    800 O     s    0.600000 *  0.333333 *  0.625000 *  -2.93634    1.000000    
    801 O     s    0.700000 *  0.944443 *  0.041665 *  -2.93634    1.000000    
    802 O     s    0.900000 *  0.611110 *  0.791665 *  -2.93634    1.000000    
    803 O     s    0.000000 *  0.555557 *  0.458335 *  -2.93634    1.000000    
    804 O     s    0.400000 *  0.777777 *  0.791665 *  -2.93634    1.000000    
    805 O     s    0.500000 *  0.055557 *  0.958335 *  -2.93634    1.000000    
    806 O     s    0.300000 *  0.944443 *  0.541665 *  -2.93634    1.000000    
    807 O     s    0.300000 *  0.388890 *  0.208335 *  -2.93634    1.000000    
    808 O     s    0.800000 *  0.444443 *  0.541665 *  -2.93634    1.000000    
    809 O     s    0.300000 *  0.277777 *  0.291665 *  -2.93634    1.000000    
    810 O     s    0.000000 *  0.222223 *  0.958335 *  -2.93634    1.000000    
    811 O     s    0.500000 *  0.500000 *  0.625000 *  -2.93634    1.000000    
    812 O     s    0.900000 *  0.388890 *  0.458335 *  -2.93634    1.000000    
    813 O     s    0.100000 *  0.833333 *  0.375000 *  -2.93634    1.000000    
    814 O     s    0.800000 *  0.666667 *  0.375000 *  -2.93634    1.000000    
    815 O     s    0.000000 *  0.000000 *  0.125000 *  -2.93634    1.000000    
    816 O     s    0.200000 *  0.333333 *  0.375000 *  -2.93634    1.000000    
    817 O     s    0.200000 *  0.666667 *  0.875000 *  -2.93634    1.000000    
    818 O     s    0.600000 *  0.666667 *  0.625000 *  -2.93634    1.000000    
    819 O     s    0.100000 *  0.277777 *  0.041665 *  -2.93634    1.000000    
    820 O     s    0.900000 *  0.166667 *  0.625000 *  -2.93634    1.000000    
    821 O     s    0.500000 *  0.944443 *  0.291665 *  -2.93634    1.000000    
    822 O     s    0.200000 *  0.777777 *  0.041665 *  -2.93634    1.000000    
    823 O     s    0.300000 *  0.833333 *  0.125000 *  -2.93634    1.000000    
    824 O     s    0.800000 *  0.888890 *  0.208335 *  -2.93634    1.000000    
    825 O     s    0.500000 *  0.833333 *  0.875000 *  -2.93634    1.000000    
    826 O     s    0.000000 *  0.444443 *  0.541665 *  -2.93634    1.000000    
    827 O     s    0.500000 *  0.500000 *  0.375000 *  -2.93634    1.000000    
    828 O     s    0.500000 *  0.611110 *  0.791665 *  -2.93634    1.000000    
    829 O     s    0.600000 *  0.444443 *  0.291665 *  -2.93634    1.000000    
    830 O     s    0.500000 *  0.388890 *  0.458335 *  -2.93634    1.000000    
    831 O     s    0.700000 *  0.722223 *  0.958335 *  -2.93634    1.000000    
    832 O     s    0.200000 *  0.555557 *  0.708335 *  -2.93634    1.000000    
    833 O     s    0.400000 *  0.555557 *  0.958335 *  -2.93634    1.000000    
    834 O     s    0.200000 *  0.555557 *  0.208335 *  -2.93634    1.000000    
    835 O     s    0.400000 *  0.000000 *  0.625000 *  -2.93634    1.000000    
    836 O     s    0.900000 *  0.055557 *  0.958335 *  -2.93634    1.000000    
    837 O     s    0.000000 *  0.222223 *  0.708335 *  -2.93634    1.000000    
    838 O     s    0.700000 *  0.500000 *  0.875000 *  -2.93634    1.000000    
    839 O     s    0.600000 *  0.555557 *  0.958335 *  -2.93634    1.000000    
    840 O     s    0.600000 *  0.666667 *  0.125000 *  -2.93634    1.000000    
    841 O     s    0.400000 *  0.666667 *  0.625000 *  -2.93634    1.000000    
    842 O     s    0.600000 *  0.555557 *  0.208335 *  -2.93634    1.000000    
    843 O     s    0.200000 *  0.333333 *  0.125000 *  -2.93634    1.000000    
    844 O     s    0.100000 *  0.722223 *  0.958335 *  -2.93634    1.000000    
    845 O     s    0.700000 *  0.277777 *  0.791665 *  -2.93634    1.000000    
    846 O     s    0.200000 *  0.222223 *  0.958335 *  -2.93634    1.000000    
    847 O     s    0.300000 *  0.166667 *  0.125000 *  -2.93634    1.000000    
    848 O     s    0.600000 *  0.000000 *  0.125000 *  -2.93634    1.000000    
    849 O     s    0.300000 *  0.277777 *  0.791665 *  -2.93634    1.000000    
    850 O     s    0.700000 *  0.277777 *  0.541665 *  -2.93634    1.000000    
    851 O     s    0.100000 *  0.277777 *  0.541665 *  -2.93634    1.000000    
    852 O     s    0.500000 *  0.722223 *  0.208335 *  -2.93634    1.000000    
    853 O     s    0.900000 *  0.944443 *  0.041665 *  -2.93634    1.000000    
    854 O     s    0.600000 *  0.888890 *  0.458335 *  -2.93634    1.000000    
    855 O     s    0.400000 *  0.333333 *  0.625000 *  -2.93634    1.000000    
    856 O     s    0.100000 *  0.055557 *  0.708335 *  -2.93634    1.000000    
    857 O     s    0.500000 *  0.277777 *  0.291665 *  -2.93634    1.000000    
    858 O     s    0.300000 *  0.833333 *  0.625000 *  -2.93634    1.000000    
    859 O     s    0.100000 *  0.944443 *  0.041665 *  -2.93634    1.000000    
    860 O     s    0.000000 *  0.111110 *  0.791665 *  -2.93634    1.000000    
    861 O     s    0.100000 *  0.277777 *  0.791665 *  -2.93634    1.000000    
    862 O     s    0.700000 *  0.055557 *  0.458335 *  -2.93634    1.000000    
    863 O     s    0.500000 *  0.166667 *  0.125000 *  -2.93634    1.000000    
    864 O     s    0.400000 *  0.666667 *  0.875000 *  -2.93634    1.000000    
    865 O     s    0.900000 *  0.166667 *  0.125000 *  -2.93634    1.000000    
    866 O     s    0.900000 *  0.500000 *  0.375000 *  -2.93634    1.000000    
    867 O     s    0.100000 *  0.500000 *  0.125000 *  -2.93634    1.000000    
    868 O     s    0.400000 *  0.555557 *  0.708335 *  -2.93634    1.000000    
    869 O     s    0.700000 *  0.166667 *  0.125000 *  -2.93634    1.000000    
    870 O     s    0.300000 *  0.055557 *  0.708335 *  -2.93634    1.000000    
    871 O     s    0.800000 *  0.666667 *  0.875000 *  -2.93634    1.000000    
    872 O     s    0.900000 *  0.944443 *  0.791665 *  -2.93634    1.000000    
    873 O     s    0.100000 *  0.722223 *  0.708335 *  -2.93634    1.000000    
    874 O     s    0.300000 *  0.944443 *  0.291665 *  -2.93634    1.000000    
    875 O     s    0.600000 *  0.333333 *  0.375000 *  -2.93634    1.000000    
    876 O     s    0.500000 *  0.833333 *  0.375000 *  -2.93634    1.000000    
    877 O     s    0.300000 *  0.722223 *  0.958335 *  -2.93634    1.000000    
    878 O     s    0.300000 *  0.055557 *  0.958335 *  -2.93634    1.000000    
    879 O     s    0.700000 *  0.611110 *  0.541665 *  -2.93634    1.000000    
    880 O     s    0.400000 *  0.111110 *  0.041665 *  -2.93634    1.000000    
    881 O     s    0.000000 *  0.333333 *  0.125000 *  -2.93634    1.000000    
    882 O     s    0.300000 *  0.277777 *  0.541665 *  -2.93634    1.000000    
    883 O     s    0.700000 *  0.944443 *  0.791665 *  -2.93634    1.000000    
    884 O     s    0.900000 *  0.055557 *  0.208335 *  -2.93634    1.000000    
    885 O     s    0.600000 *  0.444443 *  0.541665 *  -2.93634    1.000000    
    886 O     s    0.300000 *  0.500000 *  0.625000 *  -2.93634    1.000000    
    887 O     s    0.700000 *  0.055557 *  0.708335 *  -2.93634    1.000000    
    888 O     s    0.400000 *  0.444443 *  0.291665 *  -2.93634    1.000000    
    889 O     s    0.300000 *  0.166667 *  0.375000 *  -2.93634    1.000000    
    890 O     s    0.100000 *  0.500000 *  0.625000 *  -2.93634    1.000000    
    891 O     s    0.700000 *  0.833333 *  0.625000 *  -2.93634    1.000000    
    892 O     s    0.900000 *  0.722223 *  0.958335 *  -2.93634    1.000000    
    893 O     s    0.900000 *  0.388890 *  0.958335 *  -2.93634    1.000000    
    894 O     s    0.800000 *  0.888890 *  0.708335 *  -2.93634    1.000000    
    895 O     s    0.500000 *  0.500000 *  0.125000 *  -2.93634    1.000000    
    896 O     s    0.900000 *  0.166667 *  0.375000 *  -2.93634    1.000000    
    897 O     s    0.700000 *  0.055557 *  0.958335 *  -2.93634    1.000000    
    898 O     s    0.800000 *  0.111110 *  0.541665 *  -2.93634    1.000000    
    899 O     s    0.200000 *  0.777777 *  0.541665 *  -2.93634    1.000000    
    900 O     s    0.500000 *  0.166667 *  0.375000 *  -2.93634    1.000000    
    901 O     s    0.500000 *  0.944443 *  0.541665 *  -2.93634    1.000000    
    902 O     s    0.200000 *  0.111110 *  0.291665 *  -2.93634    1.000000    
    903 O     s    0.100000 *  0.166667 *  0.625000 *  -2.93634    1.000000    
    904 O     s    0.500000 *  0.055557 *  0.208335 *  -2.93634    1.000000    
    905 O     s    0.400000 *  0.777777 *  0.291665 *  -2.93634    1.000000    
    906 O     s    0.200000 *  0.777777 *  0.791665 *  -2.93634    1.000000    
    907 O     s    0.600000 *  0.444443 *  0.041665 *  -2.93634    1.000000    
    908 O     s    0.100000 *  0.833333 *  0.875000 *  -2.93634    1.000000    
    909 O     s    0.900000 *  0.611110 *  0.041665 *  -2.93634    1.000000    
    910 O     s    0.400000 *  0.222223 *  0.458335 *  -2.93634    1.000000    
    911 O     s    0.800000 *  0.777777 *  0.041665 *  -2.93634    1.000000    
    912 O     s    0.000000 *  0.444443 *  0.791665 *  -2.93634    1.000000    
    913 O     s    0.300000 *  0.055557 *  0.208335 *  -2.93634    1.000000    
    914 O     s    0.200000 *  0.000000 *  0.625000 *  -2.93634    1.000000    
    915 O     s    0.700000 *  0.722223 *  0.208335 *  -2.93634    1.000000    
    916 O     s    0.800000 *  0.555557 *  0.458335 *  -2.93634    1.000000    
    917 O     s    0.900000 *  0.277777 *  0.041665 *  -2.93634    1.000000    
    918 O     s    0.300000 *  0.722223 *  0.208335 *  -2.93634    1.000000    
    919 O     s    0.000000 *  0.333333 *  0.375000 *  -2.93634    1.000000    
    920 O     s    0.000000 *  0.666667 *  0.375000 *  -2.93634    1.000000    
    921 O     s    0.800000 *  0.666667 *  0.625000 *  -2.93634    1.000000    
    922 O     s    0.400000 *  0.111110 *  0.291665 *  -2.93634    1.000000    
    923 O     s    0.800000 *  0.777777 *  0.291665 *  -2.93634    1.000000    
    924 O     s    0.400000 *  0.111110 *  0.791665 *  -2.93634    1.000000    
    925 O     s    0.900000 *  0.722223 *  0.708335 *  -2.93634    1.000000    
    926 O     s    0.300000 *  0.611110 *  0.041665 *  -2.93634    1.000000    
    927 O     s    0.700000 *  0.833333 *  0.875000 *  -2.93634    1.000000    
    928 O     s    0.600000 *  0.777777 *  0.291665 *  -2.93634    1.000000    
    929 O     s    0.100000 *  0.166667 *  0.125000 *  -2.93634    1.000000    
    930 O     s    0.100000 *  0.833333 *  0.125000 *  -2.93634    1.000000    
    931 O     s    0.500000 *  0.500000 *  0.875000 *  -2.93634    1.000000    
    932 O     s    0.400000 *  0.555557 *  0.208335 *  -2.93634    1.000000    
    933 O     s    0.000000 *  0.666667 *  0.875000 *  -2.93634    1.000000    
    934 O     s    0.200000 *  0.111110 *  0.791665 *  -2.93634    1.000000    
    935 O     s    0.900000 *  0.277777 *  0.291665 *  -2.93634    1.000000    
    936 O     s    0.700000 *  0.500000 *  0.125000 *  -2.93634    1.000000    
    937 O     s    0.000000 *  0.333333 *  0.625000 *  -2.93634    1.000000    
    938 O     s    0.900000 *  0.388890 *  0.208335 *  -2.93634    1.000000    
    939 O     s    0.900000 *  0.277777 *  0.541665 *  -2.93634    1.000000    
    940 O     s    0.500000 *  0.388890 *  0.958335 *  -2.93634    1.000000    
    941 O     s    0.900000 *  0.944443 *  0.541665 *  -2.93634    1.000000    
    942 O     s    0.800000 *  0.333333 *  0.375000 *  -2.93634    1.000000    
    943 O     s    0.900000 *  0.722223 *  0.208335 *  -2.93634    1.000000    
    944 O     s    0.200000 *  0.111110 *  0.041665 *  -2.93634    1.000000    
    945 O     s    0.700000 *  0.611110 *  0.041665 *  -2.93634    1.000000    
    946 O     s    0.700000 *  0.388890 *  0.708335 *  -2.93634    1.000000    
    947 O     s    0.500000 *  0.944443 *  0.041665 *  -2.93634    1.000000    
    948 O     s    0.200000 *  0.444443 *  0.541665 *  -2.93634    1.000000    
    949 O     s    0.800000 *  0.888890 *  0.458335 *  -2.93634    1.000000    
    950 O     s    0.000000 *  0.777777 *  0.041665 *  -2.93634    1.000000    
    951 O     s    0.200000 *  0.000000 *  0.375000 *  -2.93634    1.000000    
    952 O     s    0.400000 *  0.222223 *  0.208335 *  -2.93634    1.000000    
    953 O     s    0.200000 *  0.666667 *  0.375000 *  -2.93634    1.000000    
    954 O     s    0.500000 *  0.833333 *  0.125000 *  -2.93634    1.000000    
    955 O     s    0.000000 *  0.666667 *  0.125000 *  -2.93634    1.000000    
    956 O     s    0.700000 *  0.611110 *  0.291665 *  -2.93634    1.000000    
    957 O     s    0.300000 *  0.833333 *  0.875000 *  -2.93634    1.000000    
    958 O     s    0.700000 *  0.277777 *  0.291665 *  -2.93634    1.000000    
    959 O     s    0.300000 *  0.833333 *  0.375000 *  -2.93634    1.000000    
    960 O     s    0.800000 *  0.333333 *  0.625000 *  -2.93634    1.000000    
    961 O     s    0.400000 *  0.777777 *  0.541665 *  -2.93634    1.000000    
    962 O     s    0.000000 *  0.444443 *  0.041665 *  -2.93634    1.000000    
    963 O     s    0.000000 *  0.888890 *  0.208335 *  -2.93634    1.000000    
    964 O     s    0.500000 *  0.611110 *  0.041665 *  -2.93634    1.000000    
    965 O     s    0.300000 *  0.611110 *  0.291665 *  -2.93634    1.000000    
    966 O     s    0.600000 *  0.222223 *  0.708335 *  -2.93634    1.000000    
    967 O     s    0.100000 *  0.944443 *  0.791665 *  -2.93634    1.000000    
    968 O     s    0.300000 *  0.500000 *  0.875000 *  -2.93634    1.000000    
    969 O     s    0.900000 *  0.833333 *  0.375000 *  -2.93634    1.000000    
    970 O     s    0.200000 *  0.777777 *  0.291665 *  -2.93634    1.000000    
    971 O     s    0.300000 *  0.944443 *  0.791665 *  -2.93634    1.000000    
    972 O     s    0.000000 *  0.222223 *  0.208335 *  -2.93634    1.000000    
    973 O     s    0.600000 *  0.333333 *  0.875000 *  -2.93634    1.000000    
    974 O     s    0.800000 *  0.444443 *  0.041665 *  -2.93634    1.000000    
    975 O     s    0.600000 *  0.222223 *  0.958335 *  -2.93634    1.000000    
    976 O     s    0.700000 *  0.166667 *  0.625000 *  -2.93634    1.000000    
    977 O     s    0.100000 *  0.055557 *  0.208335 *  -2.93634    1.000000    
    978 O     s    0.000000 *  0.111110 *  0.541665 *  -2.93634    1.000000    
    979 O     s    0.600000 *  0.777777 *  0.791665 *  -2.93634    1.000000    
    980 O     s    0.400000 *  0.333333 *  0.375000 *  -2.93634    1.000000    
    981 O     s    0.200000 *  0.222223 *  0.458335 *  -2.93634    1.000000    
    982 O     s    0.100000 *  0.833333 *  0.625000 *  -2.93634    1.000000    
    983 O     s    0.700000 *  0.722223 *  0.708335 *  -2.93634    1.000000    
    984 O     s    0.500000 *  0.277777 *  0.541665 *  -2.93634    1.000000    
    985 O     s    0.100000 *  0.611110 *  0.291665 *  -2.93634    1.000000    
    986 O     s    0.900000 *  0.500000 *  0.625000 *  -2.93634    1.000000    
    987 O     s    0.100000 *  0.277777 *  0.291665 *  -2.93634    1.000000    
    988 O     s    0.300000 *  0.500000 *  0.125000 *  -2.93634    1.000000    
    989 O     s    0.700000 *  0.722223 *  0.458335 *  -2.93634    1.000000    
    990 O     s    0.300000 *  0.388890 *  0.458335 *  -2.93634    1.000000    
    991 O     s    0.300000 *  0.944443 *  0.041665 *  -2.93634    1.000000    
    992 O     s    0.300000 *  0.277777 *  0.041665 *  -2.93634    1.000000    
    993 O     s    0.200000 *  0.444443 *  0.291665 *  -2.93634    1.000000    
    994 O     s    0.200000 *  0.444443 *  0.041665 *  -2.93634    1.000000    
    995 O     s    0.900000 *  0.166667 *  0.875000 *  -2.93634    1.000000    
    996 O     s    0.300000 *  0.722223 *  0.708335 *  -2.93634    1.000000    
    997 O     s    0.000000 *  0.444443 *  0.291665 *  -2.93634    1.000000    
    998 O     s    0.100000 *  0.944443 *  0.291665 *  -2.93634    1.000000    
    999 O     s    0.700000 *  0.500000 *  0.625000 *  -2.93634    1.000000    
   1000 O     s    0.800000 *  0.333333 *  0.875000 *  -2.93634    1.000000    
   1001 O     s    0.800000 *  0.777777 *  0.791665 *  -2.93634    1.000000    
   1002 O     s    0.200000 *  0.000000 *  0.875000 *  -2.93634    1.000000    
   1003 O     s    0.500000 *  0.388890 *  0.708335 *  -2.93634    1.000000    
   1004 O     s    0.700000 *  0.944443 *  0.541665 *  -2.93634    1.000000    
   1005 O     s    0.800000 *  0.444443 *  0.791665 *  -2.93634    1.000000    
   1006 O     s    0.000000 *  0.555557 *  0.708335 *  -2.93634    1.000000    
   1007 O     s    0.500000 *  0.055557 *  0.458335 *  -2.93634    1.000000    
   1008 O     s    0.100000 *  0.722223 *  0.208335 *  -2.93634    1.000000    
   1009 O     s    0.900000 *  0.055557 *  0.708335 *  -2.93634    1.000000    
   1010 O     s    0.600000 *  0.111110 *  0.041665 *  -2.93634    1.000000    
   1011 O     s    0.500000 *  0.722223 *  0.958335 *  -2.93634    1.000000    
   1012 O     s    0.300000 *  0.166667 *  0.625000 *  -2.93634    1.000000    
   1013 O     s    0.600000 *  0.111110 *  0.541665 *  -2.93634    1.000000    
   1014 O     s    0.700000 *  0.166667 *  0.875000 *  -2.93634    1.000000    
   1015 O     s    0.100000 *  0.611110 *  0.541665 *  -2.93634    1.000000    
   1016 O     s    0.900000 *  0.388890 *  0.708335 *  -2.93634    1.000000    
   1017 O     s    0.900000 *  0.833333 *  0.125000 *  -2.93634    1.000000    
   1018 O     s    0.800000 *  0.555557 *  0.708335 *  -2.93634    1.000000    
   1019 O     s    0.800000 *  0.000000 *  0.375000 *  -2.93634    1.000000    
   1020 O     s    0.400000 *  0.333333 *  0.125000 *  -2.93634    1.000000    
   1021 O     s    0.600000 *  0.333333 *  0.125000 *  -2.93634    1.000000    
   1022 O     s    0.100000 *  0.722223 *  0.458335 *  -2.93634    1.000000    
   1023 O     s    0.100000 *  0.388890 *  0.708335 *  -2.93634    1.000000    
   1024 O     s    0.700000 *  0.388890 *  0.958335 *  -2.93634    1.000000    
   1025 O     s    0.900000 *  0.500000 *  0.875000 *  -2.93634    1.000000    
   1026 O     s    0.700000 *  0.388890 *  0.208335 *  -2.93634    1.000000    
   1027 O     s    0.200000 *  0.888890 *  0.208335 *  -2.93634    1.000000    
   1028 O     s    0.400000 *  0.555557 *  0.458335 *  -2.93634    1.000000    
   1029 O     s    0.400000 *  0.444443 *  0.041665 *  -2.93634    1.000000    
   1030 O     s    0.000000 *  0.777777 *  0.541665 *  -2.93634    1.000000    
   1031 O     s    0.100000 *  0.388890 *  0.208335 *  -2.93634    1.000000    
   1032 O     s    0.700000 *  0.055557 *  0.208335 *  -2.93634    1.000000    
   1033 O     s    0.400000 *  0.666667 *  0.375000 *  -2.93634    1.000000    
   1034 O     s    0.600000 *  0.888890 *  0.208335 *  -2.93634    1.000000    
   1035 O     s    0.400000 *  0.888890 *  0.208335 *  -2.93634    1.000000    
   1036 O     s    0.400000 *  0.888890 *  0.708335 *  -2.93634    1.000000    
   1037 O     s    0.200000 *  0.444443 *  0.791665 *  -2.93634    1.000000    
   1038 O     s    0.900000 *  0.611110 *  0.291665 *  -2.93634    1.000000    
   1039 O     s    0.200000 *  0.888890 *  0.958335 *  -2.93634    1.000000    
   1040 O     s    0.100000 *  0.166667 *  0.875000 *  -2.93634    1.000000    
   1041 O     s    0.600000 *  0.555557 *  0.458335 *  -2.93634    1.000000    
   1042 O     s    0.600000 *  0.000000 *  0.625000 *  -2.93634    1.000000    
   1043 O     s    0.500000 *  0.611110 *  0.291665 *  -2.93634    1.000000    
   1044 O     s    0.100000 *  0.500000 *  0.375000 *  -2.93634    1.000000    
   1045 O     s    0.900000 *  0.833333 *  0.625000 *  -2.93634    1.000000    
   1046 O     s    0.200000 *  0.666667 *  0.625000 *  -2.93634    1.000000    
   1047 O     s    0.300000 *  0.055557 *  0.458335 *  -2.93634    1.000000    
   1048 O     s    0.000000 *  0.888890 *  0.958335 *  -2.93634    1.000000    
   1049 O     s    0.800000 *  0.666667 *  0.125000 *  -2.93634    1.000000    
   1050 O     s    0.200000 *  0.222223 *  0.708335 *  -2.93634    1.000000    
   1051 O     s    0.700000 *  0.944443 *  0.291665 *  -2.93634    1.000000    
   1052 O     s    0.800000 *  0.555557 *  0.208335 *  -2.93634    1.000000    
   1053 O     s    0.600000 *  0.666667 *  0.375000 *  -2.93634    1.000000    
   1054 O     s    0.600000 *  0.444443 *  0.791665 *  -2.93634    1.000000    
   1055 O     s    0.500000 *  0.388890 *  0.208335 *  -2.93634    1.000000    
   1056 O     s    0.200000 *  0.000000 *  0.125000 *  -2.93634    1.000000    
   1057 O     s    0.800000 *  0.000000 *  0.875000 *  -2.93634    1.000000    
   1058 O     s    0.500000 *  0.055557 *  0.708335 *  -2.93634    1.000000    
   1059 O     s    0.800000 *  0.333333 *  0.125000 *  -2.93634    1.000000    
   1060 O     s    0.400000 *  0.444443 *  0.791665 *  -2.93634    1.000000    
   1061 O     s    0.100000 *  0.944443 *  0.541665 *  -2.93634    1.000000    
   1062 O     s    0.400000 *  0.222223 *  0.958335 *  -2.93634    1.000000    
   1063 O     s    0.500000 *  0.166667 *  0.875000 *  -2.93634    1.000000    
   1064 O     s    0.600000 *  0.222223 *  0.458335 *  -2.93634    1.000000    
   1065 O     s    0.500000 *  0.277777 *  0.791665 *  -2.93634    1.000000    
   1066 O     s    0.200000 *  0.222223 *  0.208335 *  -2.93634    1.000000    
   1067 O     s    0.600000 *  0.222223 *  0.208335 *  -2.93634    1.000000    
   1068 O     s    0.000000 *  0.111110 *  0.291665 *  -2.93634    1.000000    
   1069 O     s    0.000000 *  0.555557 *  0.958335 *  -2.93634    1.000000    
   1070 O     s    0.800000 *  0.000000 *  0.125000 *  -2.93634    1.000000    
   1071 O     s    0.400000 *  0.000000 *  0.375000 *  -2.93634    1.000000    
   1072 O     s    0.400000 *  0.111110 *  0.541665 *  -2.93634    1.000000    
   1073 O     s    0.400000 *  0.444443 *  0.541665 *  -2.93634    1.000000    
   1074 O     s    0.600000 *  0.888890 *  0.708335 *  -2.93634    1.000000    
   1075 O     s    0.400000 *  0.333333 *  0.875000 *  -2.93634    1.000000    
   1076 O     s    0.900000 *  0.500000 *  0.125000 *  -2.93634    1.000000    
   1077 O     s    0.000000 *  0.777777 *  0.291665 *  -2.93634    1.000000    
   1078 O     s    0.400000 *  0.888890 *  0.958335 *  -2.93634    1.000000    
--------------------------------------------------------------------------------



********************************************************************************
*  General input information                                                   *
********************************************************************************

  Species output for all configurations : 

--------------------------------------------------------------------------------
  Species    Type    Atomic    Atomic    Charge       Radii (Angs)     Library
                     Number     Mass       (e)     Cova   Ionic  VDW   Symbol
--------------------------------------------------------------------------------
    Ce       Core       58     140.12  -9.850000   1.830  0.000  2.730          
    Ce       Shell      58       0.00  13.850000   1.830  0.000  0.000          
    La       Core       57     138.91  -6.945254   1.870  0.000  2.790          
    La       Shell      57       0.00   9.945254   1.870  0.000  0.000          
    O        Core        8      16.00   0.936345   0.730  0.000  1.360          
    O        Shell       8       0.00  -2.936345   0.730  0.000  0.000          
--------------------------------------------------------------------------------


  Lattice summation method               =    Ewald          (3-D)
                                         =    Parry          (2-D)
                                         =    Saunders et al (1-D)
  Accuracy factor for lattice sums       =   12.000


  Analytic derivatives to be used

  Time limit = Infinity

  Maximum range for interatomic potentials =    100000.000000 Angstroms

  General interatomic potentials :

--------------------------------------------------------------------------------
Atom  Types   Potential      Parameter       Value         Units   Cutoffs(Ang)
  1     2                                                            Min /  Max 
--------------------------------------------------------------------------------
O    s O    s Buckingham    Buckingham A     22764.300    eV        0.000 15.000
                            Buckingham rho  0.14900000    Ang       
                            Buckingham C     20.983768    eV*Ang^6  
--------------------------------------------------------------------------------
O    s Ce   s Buckingham    Buckingham A     1138.9630    eV        0.000  5.278
                            Buckingham rho  0.41757800    Ang       
                            Buckingham C     25.082349    eV*Ang^6  
--------------------------------------------------------------------------------
O    s La   s Buckingham    Buckingham A     2040.3345    eV        0.000  3.000
                            Buckingham rho  0.34800000    Ang       
                            Buckingham C     39.032337    eV*Ang^6  
--------------------------------------------------------------------------------
O    s La   s Buckingham    Buckingham A     15000.000    eV        3.500 15.000
                            Buckingham rho  0.27110000    Ang       
                            Buckingham C     39.032337    eV*Ang^6  
--------------------------------------------------------------------------------
Ce   s Ce   s Buckingham    Buckingham A     1.0000000    eV        0.000 15.000
                            Buckingham rho  0.10000000    Ang       
                            Buckingham C     30.481293    eV*Ang^6  
--------------------------------------------------------------------------------
La   s La   s Buckingham    Buckingham A     1.0000000    eV        0.000 15.000
                            Buckingham rho  0.10000000    Ang       
                            Buckingham C     72.645769    eV*Ang^6  
--------------------------------------------------------------------------------
La   s Ce   s Buckingham    Buckingham A     1.0000000    eV        0.000 15.000
                            Buckingham rho  0.10000000    Ang       
                            Buckingham C     30.481293    eV*Ang^6  
--------------------------------------------------------------------------------
O    s O    s Lennard       Lennard-Jones A  1.0000000    eV*Ang^m  0.000 15.000
                            Lennard-Jones B  0.0000000    eV*Ang^n  
                            Exponent m        12          None
                            Exponent n         6          None
--------------------------------------------------------------------------------
O    s Ce   s Lennard       Lennard-Jones A  1.0000000    eV*Ang^m  0.000  5.278
                            Lennard-Jones B  0.0000000    eV*Ang^n  
                            Exponent m        12          None
                            Exponent n         6          None
--------------------------------------------------------------------------------
O    s La   s Lennard       Lennard-Jones A  1.0000000    eV*Ang^m  0.000 15.000
                            Lennard-Jones B  0.0000000    eV*Ang^n  
                            Exponent m        12          None
                            Exponent n         6          None
--------------------------------------------------------------------------------
Ce   s Ce   s Lennard       Lennard-Jones A  1.0000000    eV*Ang^m  0.000 15.000
                            Lennard-Jones B  0.0000000    eV*Ang^n  
                            Exponent m        12          None
                            Exponent n         6          None
--------------------------------------------------------------------------------
La   s La   s Lennard       Lennard-Jones A  1.0000000    eV*Ang^m  0.000 15.000
                            Lennard-Jones B  0.0000000    eV*Ang^n  
                            Exponent m        12          None
                            Exponent n         6          None
--------------------------------------------------------------------------------
La   s Ce   s Lennard       Lennard-Jones A  1.0000000    eV*Ang^m  0.000 15.000
                            Lennard-Jones B  0.0000000    eV*Ang^n  
                            Exponent m        12          None
                            Exponent n         6          None
--------------------------------------------------------------------------------
O    s Ce   s Morse         Morse  De       -1.1517226    eV        0.000  5.278
                            Morse  a0       0.40000000    Ang^-1    
                            Morse  r0        4.5332700    Ang       
--------------------------------------------------------------------------------
O    s Ce   s Polynomial    Polynomial c0   -1.0777670    eV        0.000  5.278
                            Polynomial c1    0.0000000    eV*Ang^-1 
                            Polynomial c2    0.0000000    eV*Ang^-2 
                            Polynomial c3    0.0000000    eV*Ang^-3 
                            Polynomial c4    0.0000000    eV*Ang^-4 
                            Polynomial c5    0.0000000    eV*Ang^-5 
                            Polynomial c6    0.0000000    eV*Ang^-6 
                            Polynomial c7    0.0000000    eV*Ang^-7 
                            Polynomial c8    0.0000000    eV*Ang^-8 
--------------------------------------------------------------------------------
O    s La   s Polynomial    Polynomial c0  -0.41624000E-01eV        0.000  3.000
                            Polynomial c1    0.0000000    eV*Ang^-1 
                            Polynomial c2    0.0000000    eV*Ang^-2 
                            Polynomial c3    0.0000000    eV*Ang^-3 
                            Polynomial c4    0.0000000    eV*Ang^-4 
                            Polynomial c5    0.0000000    eV*Ang^-5 
                            Polynomial c6    0.0000000    eV*Ang^-6 
                            Polynomial c7    0.0000000    eV*Ang^-7 
                            Polynomial c8    0.0000000    eV*Ang^-8 
--------------------------------------------------------------------------------
O    s La   s Polynomial    Polynomial c0    2982.7269    eV        3.000  3.500
                            Polynomial c1   -4604.2680    eV*Ang^-1 
                            Polynomial c2    2843.5146    eV*Ang^-2 
                            Polynomial c3   -877.72810    eV*Ang^-3 
                            Polynomial c4    135.36075    eV*Ang^-4 
                            Polynomial c5   -8.3409180    eV*Ang^-5 
                            Polynomial c6    0.0000000    eV*Ang^-6 
                            Polynomial c7    0.0000000    eV*Ang^-7 
                            Polynomial c8    0.0000000    eV*Ang^-8 
--------------------------------------------------------------------------------
Ce   c Ce   s Spring (c-s)  Spring k 2       1071.1845    eV*Ang^-2 0.000  0.800
                            Spring k 4       0.0000000    eV*Ang^-4 
--------------------------------------------------------------------------------
La   c La   s Spring (c-s)  Spring k 2       512.08642    eV*Ang^-2 0.000  0.800
                            Spring k 4       0.0000000    eV*Ang^-4 
--------------------------------------------------------------------------------
O    c O    s Spring (c-s)  Spring k 2       53.022513    eV*Ang^-2 0.000  0.800
                            Spring k 4       0.0000000    eV*Ang^-4 
--------------------------------------------------------------------------------

********************************************************************************
*  Output for configuration   1 : CeO2                                         *
********************************************************************************


  Components of energy : 

--------------------------------------------------------------------------------
  Interatomic potentials     =        3004.81618156 eV    
  Monopole - monopole (real) =      -16470.76389148 eV    
  Monopole - monopole (recip)=       -5775.24964453 eV    
  Monopole - monopole (total)=      -22246.01353601 eV    
--------------------------------------------------------------------------------
  Total lattice energy       =      -19241.19735445 eV    
--------------------------------------------------------------------------------
  Total lattice energy       =        -1856481.4161 kJ/(mole unit cells)
--------------------------------------------------------------------------------
