********************************************************************************
*                       GENERAL UTILITY LATTICE PROGRAM                        *
*                                 Julian Gale                                  *
*                       Curtin Institute for Computation                       *
*                    School of Molecular and Life Sciences                     *
*                    Curtin University, Western Australia                      *
********************************************************************************
* Version = 6.1.2 * Last modified =   3rd November 2022                        *
********************************************************************************
*  single       - perform a single point run                                   *
*  conp         - constant pressure calculation                                *
*  distance     - calculate distances                                          *
********************************************************************************

  Job Started  at 12:58.50 13th July       2023                               

  Number of CPUs =     1

  Host name      = ln03                                    


  Total number of configurations input =      2

********************************************************************************
*  Input for Configuration =   1 : CeO2                                        *
********************************************************************************

  Formula = CeO2                                                        

  Number of irreducible atoms/shells =       3


  Total number atoms/shells =       3

  Dimensionality = 0               :  Cluster


  Charge on cluster =  -1.000000


  Initial cluster dipoles : x =     -2.000000 e.Angs
                            y =     -2.000000 e.Angs
                            z =      0.000000 e.Angs

  Temperature of configuration =   0.00     K 

  Symmetry number =      1

  Cartesian coordinates of cluster :

--------------------------------------------------------------------------------
   No.  Atomic       x           y          z         Charge      Occupancy
        Label      (Angs)      (Angs)     (Angs)        (e)         (Frac)  
--------------------------------------------------------------------------------
      1 Ce    c      0.0000      0.0000      0.0000     1.00000    1.000000    
      2 O     c      0.0000      2.0000      0.0000    -1.00000    1.000000    
      3 O     c      2.0000      0.0000      0.0000    -1.00000    1.000000    
--------------------------------------------------------------------------------



  Distance calculation :


  Cutoff for distances  =      3.000000 Angstroms

--------------------------------------------------------------------------------
  Asymmetric unit site  Full lattice sites    No.  Distance      No.  Distance
      No.   At.No.            At.No.                (Angs)             (Angs) 
--------------------------------------------------------------------------------
       1   Ce    core        O     core         2    2.0000
--------------------------------------------------------------------------------
       2   O     core        Ce    core         1    2.0000
                             O     core         1    2.8284
--------------------------------------------------------------------------------
       3   O     core        Ce    core         1    2.0000
                             O     core         1    2.8284
--------------------------------------------------------------------------------



********************************************************************************
*  Input for Configuration =   2                                               *
********************************************************************************

  Formula = CeO2                                                        

  Number of irreducible atoms/shells =       6


  Total number atoms/shells =       6

  Dimensionality = 0               :  Cluster


  Charge on cluster =  -2.000000


  Initial cluster dipoles : x =      4.000000 e.Angs
                            y =      4.000000 e.Angs
                            z =      0.000000 e.Angs

  Temperature of configuration =   0.00     K 

  Symmetry number =      1

  Cartesian coordinates of cluster :

--------------------------------------------------------------------------------
   No.  Atomic       x           y          z         Charge      Occupancy
        Label      (Angs)      (Angs)     (Angs)        (e)         (Frac)  
--------------------------------------------------------------------------------
      1 Ce    c      0.0000      0.0000      0.0000     1.00000    1.000000    
      2 O     c      0.0000     -2.0000      0.0000    -1.00000    1.000000    
      3 O     c     -2.0000      0.0000      0.0000    -1.00000    1.000000    
      4 Ce    s      0.0000      0.0000      0.0000     1.00000    1.000000    
      5 O     s      0.0000     -2.0000      0.0000    -1.00000    1.000000    
      6 O     s     -2.0000      0.0000      0.0000    -1.00000    1.000000    
--------------------------------------------------------------------------------



  Distance calculation :


  Cutoff for distances  =      3.000000 Angstroms

--------------------------------------------------------------------------------
  Asymmetric unit site  Full lattice sites    No.  Distance      No.  Distance
      No.   At.No.            At.No.                (Angs)             (Angs) 
--------------------------------------------------------------------------------
       1   Ce    core        O     core         2    2.0000
                             O     shell        2    2.0000
--------------------------------------------------------------------------------
       2   O     core        Ce    core         1    2.0000
                             Ce    shell        1    2.0000
                             O     core         1    2.8284
                             O     shell        1    2.8284
--------------------------------------------------------------------------------
       3   O     core        Ce    core         1    2.0000
                             Ce    shell        1    2.0000
                             O     core         1    2.8284
                             O     shell        1    2.8284
--------------------------------------------------------------------------------
       4   Ce    shell       O     core         2    2.0000
                             O     shell        2    2.0000
--------------------------------------------------------------------------------
       5   O     shell       Ce    core         1    2.0000
                             Ce    shell        1    2.0000
                             O     core         1    2.8284
                             O     shell        1    2.8284
--------------------------------------------------------------------------------
       6   O     shell       Ce    core         1    2.0000
                             Ce    shell        1    2.0000
                             O     core         1    2.8284
                             O     shell        1    2.8284
--------------------------------------------------------------------------------



********************************************************************************
*  General input information                                                   *
********************************************************************************

  Species output for all configurations : 

--------------------------------------------------------------------------------
  Species    Type    Atomic    Atomic    Charge       Radii (Angs)     Library
                     Number     Mass       (e)     Cova   Ionic  VDW   Symbol
--------------------------------------------------------------------------------
    Ce       Core       58     140.12   1.000000   1.830  0.000  2.730          
    Ce       Shell      58       0.00   1.000000   1.830  0.000  0.000          
    O        Core        8      16.00  -1.000000   0.730  0.000  1.360          
    O        Shell       8       0.00  -1.000000   0.730  0.000  0.000          
--------------------------------------------------------------------------------


  Accuracy factor for short range sums = 12.000

  Electrostatics method = Direct Coulomb

  Analytic derivatives to be used

  Time limit = Infinity

  Maximum range for interatomic potentials =    100000.000000 Angstroms

  General interatomic potentials :

--------------------------------------------------------------------------------
Atom  Types   Potential      Parameter       Value         Units   Cutoffs(Ang)
  1     2                                                            Min /  Max 
--------------------------------------------------------------------------------
O    s O    s Buckingham    Buckingham A     22764.300    eV        0.000 15.000
                            Buckingham rho  0.14900000    Ang       
                            Buckingham C     20.983768    eV*Ang^6  
--------------------------------------------------------------------------------
O    s Ce   s Buckingham    Buckingham A     1138.9630    eV        0.000  5.278
                            Buckingham rho  0.41757800    Ang       
                            Buckingham C     25.082349    eV*Ang^6  
--------------------------------------------------------------------------------
Ce   c Ce   s Spring (c-s)  Spring k 2       1071.1845    eV*Ang^-2 0.000  0.800
                            Spring k 4       0.0000000    eV*Ang^-4 
--------------------------------------------------------------------------------
O    c O    s Spring (c-s)  Spring k 2       53.022513    eV*Ang^-2 0.000  0.800
                            Spring k 4       0.0000000    eV*Ang^-4 
--------------------------------------------------------------------------------

********************************************************************************
*  Output for configuration   1 : CeO2                                         *
********************************************************************************


  Components of energy : 

--------------------------------------------------------------------------------
  Interatomic potentials     =           0.00000000 eV    
  Monopole - monopole (real) =          -9.30867499 eV    
--------------------------------------------------------------------------------
  Total lattice energy       =          -9.30867499 eV    
--------------------------------------------------------------------------------
  Total lattice energy       =            -898.1448 kJ/mol
--------------------------------------------------------------------------------

********************************************************************************
*  Output for configuration   2                                                *
********************************************************************************


  Components of energy : 

--------------------------------------------------------------------------------
  Interatomic potentials     =          18.11949419 eV    
  Monopole - monopole (real) =         -37.23469998 eV    
--------------------------------------------------------------------------------
  Total lattice energy       =         -19.11520579 eV    
--------------------------------------------------------------------------------
  Total lattice energy       =           -1844.3252 kJ/mol
--------------------------------------------------------------------------------

  Peak dynamic memory used =       3.60 MB 


  Timing analysis for GULP :

--------------------------------------------------------------------------------
  Task / Subroutine                                          Time (Seconds)
--------------------------------------------------------------------------------
--------------------------------------------------------------------------------
  Total CPU time                                                  0.0081
--------------------------------------------------------------------------------


  Job Finished at 12:58.50 13th July       2023                               

