********************************************************************************
*                       GENERAL UTILITY LATTICE PROGRAM                        *
*                                 Julian Gale                                  *
*                       Curtin Institute for Computation                       *
*                    School of Molecular and Life Sciences                     *
*                    Curtin University, Western Australia                      *
********************************************************************************
* Version = 6.1.0 * Last modified =  25th August 2022                          *
********************************************************************************
*  synchronous  - transition state search using the synchronous transit method *
*  nomodcoord   - do not mod input coordinates                                 *
*  conjugate    - use conjugate gradients minimiser                            *
********************************************************************************

  Job Started  at 12:16.00 25th August     2022                               

  Number of CPUs =     1


  Total number of configurations input =      1

********************************************************************************
*  Input for Configuration =   1                                               *
********************************************************************************

  Formula = AlO7Mg3                                                     

  Number of irreducible atoms/shells =      11


  Total number atoms/shells =      11

  Dimensionality = 2               :  Surface



  Surface Cartesian vectors (Angstroms) :

        5.944108    0.000000    0.000000
        0.000000    5.944108    0.000000

  Surface cell parameters (Angstroms/Degrees):

  a =       5.9441    alpha =  90.0000
  b =       5.9441

  Initial surface area   =     35.332420 Angs**2

  Initial surface dipole =      0.000000 e.Angs

  Temperature of configuration =   0.00     K 

  Mixed fractional/Cartesian coordinates of surface :

--------------------------------------------------------------------------------
   No.  Atomic       x           y          z         Charge      Occupancy
        Label      (Frac)      (Frac)     (Angs)        (e)         (Frac)  
--------------------------------------------------------------------------------
      1 Al    c    0.000000    0.000000      0.0000     2.00000    1.000000    
      2 O     c    0.266194 *  0.024876 *    0.0000    -2.00000    1.000000    
      3 Mg    c    0.500000 *  0.003802 *    0.0000     4.00000    1.000000    
      4 O     c    0.733806 *  0.024876 *    0.0000    -2.00000    1.000000    
      5 O     c    0.500000 *  0.260174 *    0.0000    -2.00000    1.000000    
      6 Mg    c    0.000000 *  0.528514 *    0.0000     4.00000    1.000000    
      7 O     c    0.228489 *  0.472135 *    0.0000    -2.00000    1.000000    
      8 O     c    0.000000 *  0.743146 *    0.0000    -2.00000    1.000000    
      9 Mg    c    0.500000 *  0.491682 *    0.0000     4.00000    1.000000    
     10 O     c    0.771511 *  0.472135 *    0.0000    -2.00000    1.000000    
     11 O     c    0.500000 *  0.733692 *    0.0000    -2.00000    1.000000    
--------------------------------------------------------------------------------



********************************************************************************
*  General input information                                                   *
********************************************************************************

  Species output for all configurations : 

--------------------------------------------------------------------------------
  Species    Type    Atomic    Atomic    Charge       Radii (Angs)     Library
                     Number     Mass       (e)     Cova   Ionic  VDW   Symbol
--------------------------------------------------------------------------------
    Al       Core       13      26.98   2.000000   1.350  0.000  2.050          
    O        Core        8      16.00  -2.000000   0.730  0.000  1.360          
    Mg       Core       12      24.31   4.000000   1.100  0.000  1.640          
--------------------------------------------------------------------------------


  Lattice summation method               =    Ewald          (3-D)
                                         =    Parry          (2-D)
                                         =    Saunders et al (1-D)
  Accuracy factor for lattice sums       =   12.000


  Analytic derivatives to be used

  Time limit = Infinity

  Maximum range for interatomic potentials =    100000.000000 Angstroms

  General interatomic potentials :

--------------------------------------------------------------------------------
Atom  Types   Potential      Parameter       Value         Units   Cutoffs(Ang)
  1     2                                                            Min /  Max 
--------------------------------------------------------------------------------
O    c Mg   c Buckingham    Buckingham A     1200.0000    eV        0.000 12.000
                            Buckingham rho  0.30000000    Ang       
                            Buckingham C     0.0000000    eV*Ang^6  
--------------------------------------------------------------------------------
O    c Al   c Buckingham    Buckingham A     800.00000    eV        0.000 12.000
                            Buckingham rho  0.30000000    Ang       
                            Buckingham C     0.0000000    eV*Ang^6  
--------------------------------------------------------------------------------

********************************************************************************
*  Output for configuration   1                                                *
********************************************************************************


  Components of energy : 

--------------------------------------------------------------------------------
  Interatomic potentials     =         122.29391317 eV    
  Monopole - monopole (real) =        -372.56089210 eV    
  Monopole - monopole (recip)=        -193.72720026 eV    
  Monopole - monopole (total)=        -566.28809236 eV    
--------------------------------------------------------------------------------
  Total lattice energy       =        -443.99417919 eV    
--------------------------------------------------------------------------------
  Total lattice energy       =          -42838.6512 kJ/(mole unit cells)
--------------------------------------------------------------------------------


  Synchronous transit run:

  Maximum number of iterations    =            1000
  Maximum force tolerance         =     0.000100000

********************************************************************************
 Bound number =    1
********************************************************************************
 Cell :    5.94411    5.94411  90.0000
--------------------------------------------------------------------------------
     1     0.000000     0.000000     0.000000   0.000000
     2     0.266194     0.024876     0.000000   0.000000
     3     0.500000     0.003802     0.000000   0.000000
     4     0.733806     0.024876     0.000000   0.000000
     5     0.500000     0.260174     0.000000   0.000000
     6     0.000000     0.528514     0.000000   0.000000
     7     0.228489     0.472135     0.000000   0.000000
     8     0.000000     0.743146     0.000000   0.000000
     9     0.500000     0.491682     0.000000   0.000000
    10     0.771511     0.472135     0.000000   0.000000
    11     0.500000     0.733692     0.000000   0.000000
********************************************************************************
 Bound number =    2
********************************************************************************
 Cell :    5.94411    5.94411  90.0000
--------------------------------------------------------------------------------
     1     0.000000     0.000000     0.000000   0.000000
     2     0.024876     0.266194     0.000000   0.000000
     3     0.528514     0.000000     0.000000   0.000000
     4     0.743146     0.000000     0.000000   0.000000
     5     0.472135     0.228489     0.000000   0.000000
     6     0.003802     0.500000     0.000000   0.000000
     7     0.260174     0.500000     0.000000   0.000000
     8     0.024876     0.733806     0.000000   0.000000
     9     0.491683     0.500000     0.000000   0.000000
    10     0.733692     0.500000     0.000000   0.000000
    11     0.472135     0.771511     0.000000   0.000000
--------------------------------------------------------------------------------

********************************************************************************
  Final configuration : 
********************************************************************************
 Cell :    5.94411    5.94411  90.0000
--------------------------------------------------------------------------------
     1     0.000000     0.000000     0.000000    0.00000
     2     0.024876     0.266194     0.000000    0.00000
     3     0.528514     0.000000     0.000000    0.00000
     4     0.743146     0.000000     0.000000    0.00000
     5     0.472135     0.228489     0.000000    0.00000
     6     0.003802     0.500000     0.000000    0.00000
     7     0.260174     0.500000     0.000000    0.00000
     8     0.024876     0.733806     0.000000    0.00000
     9     0.491683     0.500000     0.000000    0.00000
    10     0.733692     0.500000     0.000000    0.00000
    11     0.472135     0.771511     0.000000    0.00000
--------------------------------------------------------------------------------


  Step:      1 : Elow =  -443.99418 Ehigh =  -443.99418 MaxD =     0.24132

  Iteration =      0 Force norm =             0.000028 RMSD =   0.00000000
  Iteration =      1 Force norm =             1.244389 RMSD =   0.00000000
  Iteration =      2 Force norm =             1.044486 RMSD =   0.00006811
  Iteration =      3 Force norm =             0.342529 RMSD =   0.00045800
  Iteration =      4 Force norm =             0.272186 RMSD =   0.00012737
  Iteration =      5 Force norm =             0.210826 RMSD =   0.00032494
  Iteration =      6 Force norm =             0.383662 RMSD =   0.00027110
  Iteration =      7 Force norm =             0.117812 RMSD =   0.00006358
  Iteration =      8 Force norm =             0.100612 RMSD =   0.00003542
  Iteration =      9 Force norm =             0.110177 RMSD =   0.00009210
  Iteration =     10 Force norm =             0.099250 RMSD =   0.00014187
  Iteration =     11 Force norm =             0.090298 RMSD =   0.00007666
  Iteration =     12 Force norm =             0.040359 RMSD =   0.00004658
  Iteration =     13 Force norm =             0.036060 RMSD =   0.00003809
  Iteration =     14 Force norm =             0.043693 RMSD =   0.00004752
  Iteration =     15 Force norm =             0.072866 RMSD =   0.00011390
  Iteration =     16 Force norm =             0.075559 RMSD =   0.00016467
  Iteration =     17 Force norm =             0.036181 RMSD =   0.00005151
  Iteration =     18 Force norm =             0.027088 RMSD =   0.00004562
  Iteration =     19 Force norm =             0.026567 RMSD =   0.00003576
  Iteration =     20 Force norm =             0.018698 RMSD =   0.00002623
  Iteration =     21 Force norm =             0.006880 RMSD =   0.00000683
  Iteration =     22 Force norm =             0.004009 RMSD =   0.00000214
  Iteration =     23 Force norm =             0.003483 RMSD =   0.00000303
  Iteration =     24 Force norm =             0.003983 RMSD =   0.00000545
  Iteration =     25 Force norm =             0.007220 RMSD =   0.00000662
  Iteration =     26 Force norm =             0.006030 RMSD =   0.00000038
  Iteration =     27 Force norm =             0.002786 RMSD =   0.00000270
  Iteration =     28 Force norm =             0.003844 RMSD =   0.00000296
  Iteration =     29 Force norm =             0.006584 RMSD =   0.00001316
  Iteration =     30 Force norm =             0.010099 RMSD =   0.00001961
  Iteration =     31 Force norm =             0.007023 RMSD =   0.00002334
  Iteration =     32 Force norm =             0.003164 RMSD =   0.00000189
  Iteration =     33 Force norm =             0.001912 RMSD =   0.00000219
  Iteration =     34 Force norm =             0.001756 RMSD =   0.00000300
  Iteration =     35 Force norm =             0.001011 RMSD =   0.00000372
  Iteration =     36 Force norm =             0.000592 RMSD =   0.00000055
  Iteration =     37 Force norm =             0.000667 RMSD =   0.00000078
  Iteration =     38 Force norm =             0.000964 RMSD =   0.00000135
  Iteration =     39 Force norm =             0.000916 RMSD =   0.00000120
  Iteration =     40 Force norm =             0.000421 RMSD =   0.00000068
  Iteration =     41 Force norm =             0.000347 RMSD =   0.00000039
  Iteration =     42 Force norm =             0.000401 RMSD =   0.00000048
  Iteration =     43 Force norm =             0.000630 RMSD =   0.00000122
  Iteration =     44 Force norm =             0.000634 RMSD =   0.00000120
  Iteration =     45 Force norm =             0.000312 RMSD =   0.00000026
  Iteration =     46 Force norm =             0.000245 RMSD =   0.00000037
  Iteration =     47 Force norm =             0.000368 RMSD =   0.00000050
  Iteration =     48 Force norm =             0.000270 RMSD =   0.00000056
  Iteration =     49 Force norm =             0.000270 RMSD =   0.00000000
  Iteration =     50 Force norm =             0.000080 RMSD =   0.00000005

  **** Optimisation achieved ****

  Step:      2 : Elow =  -443.99418 Ehigh =  -443.96690 MaxD =     0.23704

  Iteration =      0 Force norm =             0.000069 RMSD =   0.00000000
  Iteration =      1 Force norm =             1.180106 RMSD =   0.00000000
  Iteration =      2 Force norm =             0.941584 RMSD =   0.00007986
  Iteration =      3 Force norm =             0.322381 RMSD =   0.00040450
  Iteration =      4 Force norm =             0.261636 RMSD =   0.00012154
  Iteration =      5 Force norm =             0.214873 RMSD =   0.00034135
  Iteration =      6 Force norm =             0.407514 RMSD =   0.00027113
  Iteration =      7 Force norm =             0.119933 RMSD =   0.00005714
  Iteration =      8 Force norm =             0.096655 RMSD =   0.00003656
  Iteration =      9 Force norm =             0.112843 RMSD =   0.00008547
  Iteration =     10 Force norm =             0.108292 RMSD =   0.00013967
  Iteration =     11 Force norm =             0.107864 RMSD =   0.00008221
  Iteration =     12 Force norm =             0.044590 RMSD =   0.00006106
  Iteration =     13 Force norm =             0.035715 RMSD =   0.00003755
  Iteration =     14 Force norm =             0.043513 RMSD =   0.00004818
  Iteration =     15 Force norm =             0.066853 RMSD =   0.00009898
  Iteration =     16 Force norm =             0.078601 RMSD =   0.00017701
  Iteration =     17 Force norm =             0.036645 RMSD =   0.00005584
  Iteration =     18 Force norm =             0.029302 RMSD =   0.00003358
  Iteration =     19 Force norm =             0.036452 RMSD =   0.00004049
  Iteration =     20 Force norm =             0.021205 RMSD =   0.00002640
  Iteration =     21 Force norm =             0.008773 RMSD =   0.00000651
  Iteration =     22 Force norm =             0.005213 RMSD =   0.00000669
  Iteration =     23 Force norm =             0.005272 RMSD =   0.00000621
  Iteration =     24 Force norm =             0.009600 RMSD =   0.00001253
  Iteration =     25 Force norm =             0.005946 RMSD =   0.00000643
  Iteration =     26 Force norm =             0.006832 RMSD =   0.00000786
  Iteration =     27 Force norm =             0.009686 RMSD =   0.00001822
  Iteration =     28 Force norm =             0.020887 RMSD =   0.00004366
  Iteration =     29 Force norm =             0.009512 RMSD =   0.00002070
  Iteration =     30 Force norm =             0.004452 RMSD =   0.00001296
  Iteration =     31 Force norm =             0.004618 RMSD =   0.00000743
  Iteration =     32 Force norm =             0.003829 RMSD =   0.00000455
  Iteration =     33 Force norm =             0.003829 RMSD =   0.00000000
  Iteration =     34 Force norm =             0.002172 RMSD =   0.00000073
  Iteration =     35 Force norm =             0.002117 RMSD =   0.00000057
  Iteration =     36 Force norm =             0.002218 RMSD =   0.00000308
  Iteration =     37 Force norm =             0.001925 RMSD =   0.00000115
  Iteration =     38 Force norm =             0.001338 RMSD =   0.00000068
  Iteration =     39 Force norm =             0.000934 RMSD =   0.00000193
  Iteration =     40 Force norm =             0.000849 RMSD =   0.00000109
  Iteration =     41 Force norm =             0.000323 RMSD =   0.00000028
  Iteration =     42 Force norm =             0.000218 RMSD =   0.00000019
  Iteration =     43 Force norm =             0.000217 RMSD =   0.00000023
  Iteration =     44 Force norm =             0.000328 RMSD =   0.00000028
  Iteration =     45 Force norm =             0.000151 RMSD =   0.00000007
  Iteration =     46 Force norm =             0.000142 RMSD =   0.00000010
  Iteration =     47 Force norm =             0.000260 RMSD =   0.00000031
  Iteration =     48 Force norm =             0.000335 RMSD =   0.00000057
  Iteration =     49 Force norm =             0.000419 RMSD =   0.00000096
  Iteration =     50 Force norm =             0.000323 RMSD =   0.00000062
  Iteration =     51 Force norm =             0.000191 RMSD =   0.00000018
  Iteration =     52 Force norm =             0.000084 RMSD =   0.00000034

  **** Optimisation achieved ****

  Step:      3 : Elow =  -443.97324 Ehigh =  -443.96690 MaxD =     0.21922

  Iteration =      0 Force norm =             0.000084 RMSD =   0.00000000
  Iteration =      1 Force norm =             1.062506 RMSD =   0.00000000
  Iteration =      2 Force norm =             0.750103 RMSD =   0.00010942
  Iteration =      3 Force norm =             0.280370 RMSD =   0.00033933
  Iteration =      4 Force norm =             0.235102 RMSD =   0.00012167
  Iteration =      5 Force norm =             0.177227 RMSD =   0.00028097
  Iteration =      6 Force norm =             0.321009 RMSD =   0.00025867
  Iteration =      7 Force norm =             0.118843 RMSD =   0.00006802
  Iteration =      8 Force norm =             0.091413 RMSD =   0.00003098
  Iteration =      9 Force norm =             0.086276 RMSD =   0.00008919
  Iteration =     10 Force norm =             0.068674 RMSD =   0.00013784
  Iteration =     11 Force norm =             0.075719 RMSD =   0.00009240
  Iteration =     12 Force norm =             0.038957 RMSD =   0.00005886
  Iteration =     13 Force norm =             0.035615 RMSD =   0.00004991
  Iteration =     14 Force norm =             0.054098 RMSD =   0.00005476
  Iteration =     15 Force norm =             0.044642 RMSD =   0.00007179
  Iteration =     16 Force norm =             0.041635 RMSD =   0.00009351
  Iteration =     17 Force norm =             0.084366 RMSD =   0.00010172
  Iteration =     18 Force norm =             0.019068 RMSD =   0.00003543
  Iteration =     19 Force norm =             0.019068 RMSD =   0.00000000
  Iteration =     20 Force norm =             0.020449 RMSD =   0.00000937
  Iteration =     21 Force norm =             0.011022 RMSD =   0.00000480
  Iteration =     22 Force norm =             0.004954 RMSD =   0.00000875
  Iteration =     23 Force norm =             0.004884 RMSD =   0.00000351
  Iteration =     24 Force norm =             0.003043 RMSD =   0.00000414
  Iteration =     25 Force norm =             0.002976 RMSD =   0.00000254
  Iteration =     26 Force norm =             0.004534 RMSD =   0.00000906
  Iteration =     27 Force norm =             0.011179 RMSD =   0.00001639
  Iteration =     28 Force norm =             0.004915 RMSD =   0.00000554
  Iteration =     29 Force norm =             0.003404 RMSD =   0.00000619
  Iteration =     30 Force norm =             0.002841 RMSD =   0.00000685
  Iteration =     31 Force norm =             0.006395 RMSD =   0.00000881
  Iteration =     32 Force norm =             0.000928 RMSD =   0.00000127
  Iteration =     33 Force norm =             0.000928 RMSD =   0.00000000
  Iteration =     34 Force norm =             0.001030 RMSD =   0.00000045
  Iteration =     35 Force norm =             0.000604 RMSD =   0.00000033
  Iteration =     36 Force norm =             0.000422 RMSD =   0.00000057
  Iteration =     37 Force norm =             0.000499 RMSD =   0.00000033
  Iteration =     38 Force norm =             0.000501 RMSD =   0.00000043
  Iteration =     39 Force norm =             0.000797 RMSD =   0.00000154
  Iteration =     40 Force norm =             0.000659 RMSD =   0.00000076
  Iteration =     41 Force norm =             0.000170 RMSD =   0.00000045
  Iteration =     42 Force norm =             0.000147 RMSD =   0.00000008
  Iteration =     43 Force norm =             0.000238 RMSD =   0.00000045
  Iteration =     44 Force norm =             0.000457 RMSD =   0.00000048
  Iteration =     45 Force norm =             0.000160 RMSD =   0.00000010
  Iteration =     46 Force norm =             0.000108 RMSD =   0.00000013
  Iteration =     47 Force norm =             0.000100 RMSD =   0.00000022
  Iteration =     48 Force norm =             0.000116 RMSD =   0.00000013
  Iteration =     49 Force norm =             0.000037 RMSD =   0.00000009

  **** Optimisation achieved ****

  Step:      4 : Elow =  -443.96690 Ehigh =  -443.89646 MaxD =     0.21381

  Iteration =      0 Force norm =             0.000080 RMSD =   0.00000000
  Iteration =      1 Force norm =             1.016293 RMSD =   0.00000000
  Iteration =      2 Force norm =             0.662758 RMSD =   0.00012504
  Iteration =      3 Force norm =             0.276816 RMSD =   0.00030247
  Iteration =      4 Force norm =             0.242491 RMSD =   0.00012670
  Iteration =      5 Force norm =             0.197557 RMSD =   0.00031082
  Iteration =      6 Force norm =             0.401373 RMSD =   0.00030406
  Iteration =      7 Force norm =             0.128306 RMSD =   0.00006777
  Iteration =      8 Force norm =             0.108884 RMSD =   0.00004056
  Iteration =      9 Force norm =             0.126034 RMSD =   0.00011487
  Iteration =     10 Force norm =             0.122674 RMSD =   0.00019567
  Iteration =     11 Force norm =             0.132990 RMSD =   0.00013648
  Iteration =     12 Force norm =             0.060103 RMSD =   0.00009992
  Iteration =     13 Force norm =             0.049857 RMSD =   0.00007735
  Iteration =     14 Force norm =             0.063484 RMSD =   0.00008232
  Iteration =     15 Force norm =             0.083551 RMSD =   0.00013848
  Iteration =     16 Force norm =             0.051701 RMSD =   0.00008513
  Iteration =     17 Force norm =             0.035193 RMSD =   0.00005760
  Iteration =     18 Force norm =             0.037446 RMSD =   0.00004305
  Iteration =     19 Force norm =             0.023628 RMSD =   0.00002031
  Iteration =     20 Force norm =             0.012557 RMSD =   0.00000761
  Iteration =     21 Force norm =             0.009765 RMSD =   0.00001085
  Iteration =     22 Force norm =             0.013703 RMSD =   0.00001384
  Iteration =     23 Force norm =             0.016025 RMSD =   0.00003453
  Iteration =     24 Force norm =             0.023403 RMSD =   0.00004711
  Iteration =     25 Force norm =             0.014510 RMSD =   0.00004148
  Iteration =     26 Force norm =             0.017971 RMSD =   0.00004890
  Iteration =     27 Force norm =             0.014088 RMSD =   0.00000811
  Iteration =     28 Force norm =             0.014088 RMSD =   0.00000000
  Iteration =     29 Force norm =             0.009689 RMSD =   0.00000078
  Iteration =     30 Force norm =             0.003462 RMSD =   0.00000200
  Iteration =     31 Force norm =             0.003236 RMSD =   0.00000085
  Iteration =     32 Force norm =             0.002039 RMSD =   0.00000304
  Iteration =     33 Force norm =             0.003330 RMSD =   0.00000223
  Iteration =     34 Force norm =             0.001975 RMSD =   0.00000116
  Iteration =     35 Force norm =             0.001370 RMSD =   0.00000290
  Iteration =     36 Force norm =             0.001373 RMSD =   0.00000211
  Iteration =     37 Force norm =             0.001026 RMSD =   0.00000191
  Iteration =     38 Force norm =             0.000716 RMSD =   0.00000072
  Iteration =     39 Force norm =             0.000728 RMSD =   0.00000135
  Iteration =     40 Force norm =             0.001890 RMSD =   0.00000165
  Iteration =     41 Force norm =             0.000768 RMSD =   0.00000028
  Iteration =     42 Force norm =             0.000531 RMSD =   0.00000066
  Iteration =     43 Force norm =             0.000639 RMSD =   0.00000148
  Iteration =     44 Force norm =             0.000432 RMSD =   0.00000144
  Iteration =     45 Force norm =             0.000283 RMSD =   0.00000019
  Iteration =     46 Force norm =             0.000150 RMSD =   0.00000011
  Iteration =     47 Force norm =             0.000139 RMSD =   0.00000007
  Iteration =     48 Force norm =             0.000197 RMSD =   0.00000016
  Iteration =     49 Force norm =             0.000198 RMSD =   0.00000026
  Iteration =     50 Force norm =             0.000375 RMSD =   0.00000052
  Iteration =     51 Force norm =             0.000199 RMSD =   0.00000043
  Iteration =     52 Force norm =             0.000120 RMSD =   0.00000013
  Iteration =     53 Force norm =             0.000111 RMSD =   0.00000023
  Iteration =     54 Force norm =             0.000094 RMSD =   0.00000011

  **** Optimisation achieved ****

  Step:      5 : Elow =  -443.90940 Ehigh =  -443.89646 MaxD =     0.19893

  Iteration =      0 Force norm =             0.000094 RMSD =   0.00000000
  Iteration =      1 Force norm =             0.887561 RMSD =   0.00000000
  Iteration =      2 Force norm =             0.758099 RMSD =   0.00004469
  Iteration =      3 Force norm =             0.230432 RMSD =   0.00033344
  Iteration =      4 Force norm =             0.192186 RMSD =   0.00009560
  Iteration =      5 Force norm =             0.140512 RMSD =   0.00023202
  Iteration =      6 Force norm =             0.212749 RMSD =   0.00023199
  Iteration =      7 Force norm =             0.138980 RMSD =   0.00007753
  Iteration =      8 Force norm =             0.081314 RMSD =   0.00003036
  Iteration =      9 Force norm =             0.070927 RMSD =   0.00005815
  Iteration =     10 Force norm =             0.067689 RMSD =   0.00010597
  Iteration =     11 Force norm =             0.126222 RMSD =   0.00014597
  Iteration =     12 Force norm =             0.035022 RMSD =   0.00003565
  Iteration =     13 Force norm =             0.027356 RMSD =   0.00001515
  Iteration =     14 Force norm =             0.029974 RMSD =   0.00003820
  Iteration =     15 Force norm =             0.054505 RMSD =   0.00005959
  Iteration =     16 Force norm =             0.025064 RMSD =   0.00004874
  Iteration =     17 Force norm =             0.017452 RMSD =   0.00002101
  Iteration =     18 Force norm =             0.019985 RMSD =   0.00002716
  Iteration =     19 Force norm =             0.025522 RMSD =   0.00001877
  Iteration =     20 Force norm =             0.025522 RMSD =   0.00000000
  Iteration =     21 Force norm =             0.005336 RMSD =   0.00000422
  Iteration =     22 Force norm =             0.004463 RMSD =   0.00000084
  Iteration =     23 Force norm =             0.004344 RMSD =   0.00000658
  Iteration =     24 Force norm =             0.005645 RMSD =   0.00000278
  Iteration =     25 Force norm =             0.002580 RMSD =   0.00000091
  Iteration =     26 Force norm =             0.001637 RMSD =   0.00000125
  Iteration =     27 Force norm =             0.003122 RMSD =   0.00000463
  Iteration =     28 Force norm =             0.003545 RMSD =   0.00000605
  Iteration =     29 Force norm =             0.007513 RMSD =   0.00000583
  Iteration =     30 Force norm =             0.002103 RMSD =   0.00000381
  Iteration =     31 Force norm =             0.000901 RMSD =   0.00000109
  Iteration =     32 Force norm =             0.000753 RMSD =   0.00000110
  Iteration =     33 Force norm =             0.000501 RMSD =   0.00000106
  Iteration =     34 Force norm =             0.000369 RMSD =   0.00000015
  Iteration =     35 Force norm =             0.000264 RMSD =   0.00000036
  Iteration =     36 Force norm =             0.000299 RMSD =   0.00000029
  Iteration =     37 Force norm =             0.000466 RMSD =   0.00000145
  Iteration =     38 Force norm =             0.000302 RMSD =   0.00000034
  Iteration =     39 Force norm =             0.000269 RMSD =   0.00000015
  Iteration =     40 Force norm =             0.000191 RMSD =   0.00000022
  Iteration =     41 Force norm =             0.000143 RMSD =   0.00000011
  Iteration =     42 Force norm =             0.000141 RMSD =   0.00000001
  Iteration =     43 Force norm =             0.000120 RMSD =   0.00000007
  Iteration =     44 Force norm =             0.000113 RMSD =   0.00000002
  Iteration =     45 Force norm =             0.000113 RMSD =   0.00000000
  Iteration =     46 Force norm =             0.000170 RMSD =   0.00000010
  Iteration =     47 Force norm =             0.000076 RMSD =   0.00000007

  **** Optimisation achieved ****

  Step:      6 : Elow =  -443.89646 Ehigh =  -443.78814 MaxD =     0.19306

  Iteration =      0 Force norm =             0.000037 RMSD =   0.00000000
  Iteration =      1 Force norm =             0.864341 RMSD =   0.00000000
  Iteration =      2 Force norm =             0.728290 RMSD =   0.00004839
  Iteration =      3 Force norm =             0.260437 RMSD =   0.00033518
  Iteration =      4 Force norm =             0.234724 RMSD =   0.00011481
  Iteration =      5 Force norm =             0.195919 RMSD =   0.00035617
  Iteration =      6 Force norm =             0.452070 RMSD =   0.00040633
  Iteration =      7 Force norm =             0.175245 RMSD =   0.00009506
  Iteration =      8 Force norm =             0.128330 RMSD =   0.00004621
  Iteration =      9 Force norm =             0.131687 RMSD =   0.00013087
  Iteration =     10 Force norm =             0.114417 RMSD =   0.00021311
  Iteration =     11 Force norm =             0.218165 RMSD =   0.00030339
  Iteration =     12 Force norm =             0.053094 RMSD =   0.00006907
  Iteration =     13 Force norm =             0.040072 RMSD =   0.00002374
  Iteration =     14 Force norm =             0.046767 RMSD =   0.00006899
  Iteration =     15 Force norm =             0.092735 RMSD =   0.00007946
  Iteration =     16 Force norm =             0.041147 RMSD =   0.00004629
  Iteration =     17 Force norm =             0.025628 RMSD =   0.00003991
  Iteration =     18 Force norm =             0.024285 RMSD =   0.00002906
  Iteration =     19 Force norm =             0.033289 RMSD =   0.00004586
  Iteration =     20 Force norm =             0.014262 RMSD =   0.00001238
  Iteration =     21 Force norm =             0.014262 RMSD =   0.00000000
  Iteration =     22 Force norm =             0.010565 RMSD =   0.00000281
  Iteration =     23 Force norm =             0.012216 RMSD =   0.00000732
  Iteration =     24 Force norm =             0.012915 RMSD =   0.00001335
  Iteration =     25 Force norm =             0.028023 RMSD =   0.00002754
  Iteration =     26 Force norm =             0.011455 RMSD =   0.00001180
  Iteration =     27 Force norm =             0.008439 RMSD =   0.00001161
  Iteration =     28 Force norm =             0.008075 RMSD =   0.00001479
  Iteration =     29 Force norm =             0.018861 RMSD =   0.00001818
  Iteration =     30 Force norm =             0.004692 RMSD =   0.00000685
  Iteration =     31 Force norm =             0.004692 RMSD =   0.00000000
  Iteration =     32 Force norm =             0.005242 RMSD =   0.00000230
  Iteration =     33 Force norm =             0.004293 RMSD =   0.00000250
  Iteration =     34 Force norm =             0.006801 RMSD =   0.00000834
  Iteration =     35 Force norm =             0.004889 RMSD =   0.00000392
  Iteration =     36 Force norm =             0.002547 RMSD =   0.00000134
  Iteration =     37 Force norm =             0.001468 RMSD =   0.00000178
  Iteration =     38 Force norm =             0.001504 RMSD =   0.00000303
  Iteration =     39 Force norm =             0.003383 RMSD =   0.00000291
  Iteration =     40 Force norm =             0.001275 RMSD =   0.00000078
  Iteration =     41 Force norm =             0.001082 RMSD =   0.00000093
  Iteration =     42 Force norm =             0.001586 RMSD =   0.00000294
  Iteration =     43 Force norm =             0.001650 RMSD =   0.00000419
  Iteration =     44 Force norm =             0.001940 RMSD =   0.00000159
  Iteration =     45 Force norm =             0.000631 RMSD =   0.00000312
  Iteration =     46 Force norm =             0.000355 RMSD =   0.00000062
  Iteration =     47 Force norm =             0.000269 RMSD =   0.00000014
  Iteration =     48 Force norm =             0.000269 RMSD =   0.00000000
  Iteration =     49 Force norm =             0.000415 RMSD =   0.00000032
  Iteration =     50 Force norm =             0.000255 RMSD =   0.00000022
  Iteration =     51 Force norm =             0.000193 RMSD =   0.00000013
  Iteration =     52 Force norm =             0.000167 RMSD =   0.00000029
  Iteration =     53 Force norm =             0.000160 RMSD =   0.00000014
  Iteration =     54 Force norm =             0.000076 RMSD =   0.00000007

  **** Optimisation achieved ****

  Step:      7 : Elow =  -443.81675 Ehigh =  -443.78814 MaxD =     0.18047

  Iteration =      0 Force norm =             0.000076 RMSD =   0.00000000
  Iteration =      1 Force norm =             0.735264 RMSD =   0.00000000
  Iteration =      2 Force norm =             0.518850 RMSD =   0.00007862
  Iteration =      3 Force norm =             0.190056 RMSD =   0.00024345
  Iteration =      4 Force norm =             0.165458 RMSD =   0.00009077
  Iteration =      5 Force norm =             0.117505 RMSD =   0.00018090
  Iteration =      6 Force norm =             0.175539 RMSD =   0.00019223
  Iteration =      7 Force norm =             0.116143 RMSD =   0.00007233
  Iteration =      8 Force norm =             0.066717 RMSD =   0.00002833
  Iteration =      9 Force norm =             0.054079 RMSD =   0.00004898
  Iteration =     10 Force norm =             0.062533 RMSD =   0.00009566
  Iteration =     11 Force norm =             0.121011 RMSD =   0.00013406
  Iteration =     12 Force norm =             0.030541 RMSD =   0.00002151
  Iteration =     13 Force norm =             0.021455 RMSD =   0.00001258
  Iteration =     14 Force norm =             0.021191 RMSD =   0.00002954
  Iteration =     15 Force norm =             0.035646 RMSD =   0.00003507
  Iteration =     16 Force norm =             0.014692 RMSD =   0.00003090
  Iteration =     17 Force norm =             0.011128 RMSD =   0.00001208
  Iteration =     18 Force norm =             0.012470 RMSD =   0.00001845
  Iteration =     19 Force norm =             0.005161 RMSD =   0.00000458
  Iteration =     20 Force norm =             0.003239 RMSD =   0.00000203
  Iteration =     21 Force norm =             0.001927 RMSD =   0.00000291
  Iteration =     22 Force norm =             0.002884 RMSD =   0.00000292
  Iteration =     23 Force norm =             0.001525 RMSD =   0.00000170
  Iteration =     24 Force norm =             0.001304 RMSD =   0.00000200
  Iteration =     25 Force norm =             0.001492 RMSD =   0.00000228
  Iteration =     26 Force norm =             0.003012 RMSD =   0.00000499
  Iteration =     27 Force norm =             0.001704 RMSD =   0.00000261
  Iteration =     28 Force norm =             0.001704 RMSD =   0.00000000
  Iteration =     29 Force norm =             0.000955 RMSD =   0.00000037
  Iteration =     30 Force norm =             0.000818 RMSD =   0.00000021
  Iteration =     31 Force norm =             0.001319 RMSD =   0.00000137
  Iteration =     32 Force norm =             0.000964 RMSD =   0.00000044
  Iteration =     33 Force norm =             0.000229 RMSD =   0.00000028
  Iteration =     34 Force norm =             0.000182 RMSD =   0.00000006
  Iteration =     35 Force norm =             0.000215 RMSD =   0.00000041
  Iteration =     36 Force norm =             0.000244 RMSD =   0.00000029
  Iteration =     37 Force norm =             0.000249 RMSD =   0.00000043
  Iteration =     38 Force norm =             0.000092 RMSD =   0.00000009

  **** Optimisation achieved ****

  Step:      8 : Elow =  -443.78814 Ehigh =  -443.66562 MaxD =     0.17440

  Iteration =      0 Force norm =             0.000076 RMSD =   0.00000000
  Iteration =      1 Force norm =             0.729113 RMSD =   0.00000000
  Iteration =      2 Force norm =             0.526235 RMSD =   0.00008062
  Iteration =      3 Force norm =             0.255802 RMSD =   0.00027885
  Iteration =      4 Force norm =             0.253754 RMSD =   0.00014283
  Iteration =      5 Force norm =             0.213443 RMSD =   0.00040977
  Iteration =      6 Force norm =             0.430666 RMSD =   0.00048646
  Iteration =      7 Force norm =             0.183783 RMSD =   0.00013449
  Iteration =      8 Force norm =             0.123451 RMSD =   0.00006458
  Iteration =      9 Force norm =             0.109921 RMSD =   0.00012434
  Iteration =     10 Force norm =             0.203700 RMSD =   0.00019074
  Iteration =     11 Force norm =             0.045972 RMSD =   0.00007864
  Iteration =     12 Force norm =             0.038694 RMSD =   0.00001958
  Iteration =     13 Force norm =             0.039133 RMSD =   0.00008916
  Iteration =     14 Force norm =             0.035487 RMSD =   0.00002713
  Iteration =     15 Force norm =             0.027932 RMSD =   0.00002039
  Iteration =     16 Force norm =             0.025642 RMSD =   0.00005259
  Iteration =     17 Force norm =             0.024094 RMSD =   0.00002185
  Iteration =     18 Force norm =             0.024094 RMSD =   0.00000000
  Iteration =     19 Force norm =             0.015852 RMSD =   0.00000685
  Iteration =     20 Force norm =             0.013103 RMSD =   0.00000368
  Iteration =     21 Force norm =             0.016811 RMSD =   0.00002650
  Iteration =     22 Force norm =             0.028768 RMSD =   0.00001891
  Iteration =     23 Force norm =             0.013532 RMSD =   0.00000362
  Iteration =     24 Force norm =             0.008094 RMSD =   0.00000908
  Iteration =     25 Force norm =             0.010579 RMSD =   0.00001618
  Iteration =     26 Force norm =             0.009282 RMSD =   0.00002035
  Iteration =     27 Force norm =             0.010063 RMSD =   0.00000714
  Iteration =     28 Force norm =             0.002621 RMSD =   0.00001224
  Iteration =     29 Force norm =             0.002621 RMSD =   0.00000000
  Iteration =     30 Force norm =             0.001945 RMSD =   0.00000086
  Iteration =     31 Force norm =             0.001493 RMSD =   0.00000068
  Iteration =     32 Force norm =             0.001401 RMSD =   0.00000185
  Iteration =     33 Force norm =             0.003021 RMSD =   0.00000268
  Iteration =     34 Force norm =             0.001286 RMSD =   0.00000094
  Iteration =     35 Force norm =             0.001153 RMSD =   0.00000101
  Iteration =     36 Force norm =             0.001374 RMSD =   0.00000184
  Iteration =     37 Force norm =             0.001762 RMSD =   0.00000278
  Iteration =     38 Force norm =             0.001658 RMSD =   0.00000242
  Iteration =     39 Force norm =             0.001658 RMSD =   0.00000000
  Iteration =     40 Force norm =             0.000440 RMSD =   0.00000028
  Iteration =     41 Force norm =             0.000379 RMSD =   0.00000008
  Iteration =     42 Force norm =             0.000356 RMSD =   0.00000050
  Iteration =     43 Force norm =             0.000627 RMSD =   0.00000035
  Iteration =     44 Force norm =             0.000230 RMSD =   0.00000010
  Iteration =     45 Force norm =             0.000149 RMSD =   0.00000009
  Iteration =     46 Force norm =             0.000211 RMSD =   0.00000024
  Iteration =     47 Force norm =             0.000207 RMSD =   0.00000028
  Iteration =     48 Force norm =             0.000367 RMSD =   0.00000057
  Iteration =     49 Force norm =             0.000197 RMSD =   0.00000010
  Iteration =     50 Force norm =             0.000197 RMSD =   0.00000000
  Iteration =     51 Force norm =             0.000070 RMSD =   0.00000004

  **** Optimisation achieved ****

  Step:      9 : Elow =  -443.69645 Ehigh =  -443.66562 MaxD =     0.16420

  Iteration =      0 Force norm =             0.000070 RMSD =   0.00000000
  Iteration =      1 Force norm =             0.601935 RMSD =   0.00000000
  Iteration =      2 Force norm =             0.522354 RMSD =   0.00002866
  Iteration =      3 Force norm =             0.158754 RMSD =   0.00024109
  Iteration =      4 Force norm =             0.137011 RMSD =   0.00007227
  Iteration =      5 Force norm =             0.100236 RMSD =   0.00014992
  Iteration =      6 Force norm =             0.200410 RMSD =   0.00016907
  Iteration =      7 Force norm =             0.068835 RMSD =   0.00004163
  Iteration =      8 Force norm =             0.051509 RMSD =   0.00001985
  Iteration =      9 Force norm =             0.043427 RMSD =   0.00006079
  Iteration =     10 Force norm =             0.100931 RMSD =   0.00011345
  Iteration =     11 Force norm =             0.030555 RMSD =   0.00005431
  Iteration =     12 Force norm =             0.019240 RMSD =   0.00001463
  Iteration =     13 Force norm =             0.013188 RMSD =   0.00002752
  Iteration =     14 Force norm =             0.025758 RMSD =   0.00002450
  Iteration =     15 Force norm =             0.011055 RMSD =   0.00001854
  Iteration =     16 Force norm =             0.011055 RMSD =   0.00000000
  Iteration =     17 Force norm =             0.006841 RMSD =   0.00000264
  Iteration =     18 Force norm =             0.006561 RMSD =   0.00000299
  Iteration =     19 Force norm =             0.007535 RMSD =   0.00000857
  Iteration =     20 Force norm =             0.004146 RMSD =   0.00000279
  Iteration =     21 Force norm =             0.002961 RMSD =   0.00000098
  Iteration =     22 Force norm =             0.002962 RMSD =   0.00000312
  Iteration =     23 Force norm =             0.001562 RMSD =   0.00000314
  Iteration =     24 Force norm =             0.001943 RMSD =   0.00000210
  Iteration =     25 Force norm =             0.000916 RMSD =   0.00000093
  Iteration =     26 Force norm =             0.000732 RMSD =   0.00000041
  Iteration =     27 Force norm =             0.000678 RMSD =   0.00000126
  Iteration =     28 Force norm =             0.001452 RMSD =   0.00000191
  Iteration =     29 Force norm =             0.000661 RMSD =   0.00000056
  Iteration =     30 Force norm =             0.000381 RMSD =   0.00000073
  Iteration =     31 Force norm =             0.000419 RMSD =   0.00000058
  Iteration =     32 Force norm =             0.000247 RMSD =   0.00000043
  Iteration =     33 Force norm =             0.000247 RMSD =   0.00000000
  Iteration =     34 Force norm =             0.000187 RMSD =   0.00000008
  Iteration =     35 Force norm =             0.000132 RMSD =   0.00000004
  Iteration =     36 Force norm =             0.000073 RMSD =   0.00000015

  **** Optimisation achieved ****

  Step:     10 : Elow =  -443.66562 Ehigh =  -443.52541 MaxD =     0.15813

  Iteration =      0 Force norm =             0.000092 RMSD =   0.00000000
  Iteration =      1 Force norm =             0.617523 RMSD =   0.00000000
  Iteration =      2 Force norm =             0.553427 RMSD =   0.00002654
  Iteration =      3 Force norm =             0.254796 RMSD =   0.00031333
  Iteration =      4 Force norm =             0.257452 RMSD =   0.00014489
  Iteration =      5 Force norm =             0.217822 RMSD =   0.00047452
  Iteration =      6 Force norm =             0.331412 RMSD =   0.00028154
  Iteration =      7 Force norm =             0.162729 RMSD =   0.00022778
  Iteration =      8 Force norm =             0.114912 RMSD =   0.00011249
  Iteration =      9 Force norm =             0.103397 RMSD =   0.00011437
  Iteration =     10 Force norm =             0.097468 RMSD =   0.00008123
  Iteration =     11 Force norm =             0.034749 RMSD =   0.00004883
  Iteration =     12 Force norm =             0.028120 RMSD =   0.00002280
  Iteration =     13 Force norm =             0.024537 RMSD =   0.00004869
  Iteration =     14 Force norm =             0.045865 RMSD =   0.00004542
  Iteration =     15 Force norm =             0.018883 RMSD =   0.00001488
  Iteration =     16 Force norm =             0.012352 RMSD =   0.00001384
  Iteration =     17 Force norm =             0.014844 RMSD =   0.00001849
  Iteration =     18 Force norm =             0.022177 RMSD =   0.00002909
  Iteration =     19 Force norm =             0.008674 RMSD =   0.00000704
  Iteration =     20 Force norm =             0.006622 RMSD =   0.00000376
  Iteration =     21 Force norm =             0.006806 RMSD =   0.00000723
  Iteration =     22 Force norm =             0.009189 RMSD =   0.00001461
  Iteration =     23 Force norm =             0.005229 RMSD =   0.00000784
  Iteration =     24 Force norm =             0.002564 RMSD =   0.00000282
  Iteration =     25 Force norm =             0.001654 RMSD =   0.00000247
  Iteration =     26 Force norm =             0.002805 RMSD =   0.00000193
  Iteration =     27 Force norm =             0.000703 RMSD =   0.00000046
  Iteration =     28 Force norm =             0.000523 RMSD =   0.00000023
  Iteration =     29 Force norm =             0.000565 RMSD =   0.00000047
  Iteration =     30 Force norm =             0.000636 RMSD =   0.00000082
  Iteration =     31 Force norm =             0.001198 RMSD =   0.00000136
  Iteration =     32 Force norm =             0.001198 RMSD =   0.00000000
  Iteration =     33 Force norm =             0.000402 RMSD =   0.00000025
  Iteration =     34 Force norm =             0.000351 RMSD =   0.00000008
  Iteration =     35 Force norm =             0.000708 RMSD =   0.00000083
  Iteration =     36 Force norm =             0.000565 RMSD =   0.00000025
  Iteration =     37 Force norm =             0.000193 RMSD =   0.00000015
  Iteration =     38 Force norm =             0.000146 RMSD =   0.00000006
  Iteration =     39 Force norm =             0.000237 RMSD =   0.00000041
  Iteration =     40 Force norm =             0.000223 RMSD =   0.00000037
  Iteration =     41 Force norm =             0.000258 RMSD =   0.00000026
  Iteration =     42 Force norm =             0.000094 RMSD =   0.00000029

  **** Optimisation achieved ****

  Step:     11 : Elow =  -443.56826 Ehigh =  -443.52541 MaxD =     0.14920

  Iteration =      0 Force norm =             0.000094 RMSD =   0.00000000
  Iteration =      1 Force norm =             0.491700 RMSD =   0.00000000
  Iteration =      2 Force norm =             0.353865 RMSD =   0.00005258
  Iteration =      3 Force norm =             0.133563 RMSD =   0.00017646
  Iteration =      4 Force norm =             0.121229 RMSD =   0.00006957
  Iteration =      5 Force norm =             0.084984 RMSD =   0.00011871
  Iteration =      6 Force norm =             0.161380 RMSD =   0.00013292
  Iteration =      7 Force norm =             0.049580 RMSD =   0.00003265
  Iteration =      8 Force norm =             0.041821 RMSD =   0.00001595
  Iteration =      9 Force norm =             0.041844 RMSD =   0.00006583
  Iteration =     10 Force norm =             0.052736 RMSD =   0.00004475
  Iteration =     11 Force norm =             0.027142 RMSD =   0.00005308
  Iteration =     12 Force norm =             0.017022 RMSD =   0.00003147
  Iteration =     13 Force norm =             0.010761 RMSD =   0.00001655
  Iteration =     14 Force norm =             0.006986 RMSD =   0.00000749
  Iteration =     15 Force norm =             0.006986 RMSD =   0.00000000
  Iteration =     16 Force norm =             0.007567 RMSD =   0.00000419
  Iteration =     17 Force norm =             0.005387 RMSD =   0.00000542
  Iteration =     18 Force norm =             0.006965 RMSD =   0.00000872
  Iteration =     19 Force norm =             0.005472 RMSD =   0.00000566
  Iteration =     20 Force norm =             0.001636 RMSD =   0.00000199
  Iteration =     21 Force norm =             0.000975 RMSD =   0.00000070
  Iteration =     22 Force norm =             0.000890 RMSD =   0.00000091
  Iteration =     23 Force norm =             0.001499 RMSD =   0.00000143
  Iteration =     24 Force norm =             0.000734 RMSD =   0.00000100
  Iteration =     25 Force norm =             0.000628 RMSD =   0.00000059
  Iteration =     26 Force norm =             0.000495 RMSD =   0.00000128
  Iteration =     27 Force norm =             0.000811 RMSD =   0.00000056
  Iteration =     28 Force norm =             0.000374 RMSD =   0.00000071
  Iteration =     29 Force norm =             0.000175 RMSD =   0.00000035
  Iteration =     30 Force norm =             0.000214 RMSD =   0.00000022
  Iteration =     31 Force norm =             0.000214 RMSD =   0.00000000
  Iteration =     32 Force norm =             0.000064 RMSD =   0.00000004

  **** Optimisation achieved ****

  Step:     12 : Elow =  -443.52541 Ehigh =  -443.39089 MaxD =     0.14336

  Iteration =      0 Force norm =             0.000073 RMSD =   0.00000000
  Iteration =      1 Force norm =             0.523444 RMSD =   0.00000000
  Iteration =      2 Force norm =             0.431269 RMSD =   0.00004358
  Iteration =      3 Force norm =             0.251767 RMSD =   0.00028861
  Iteration =      4 Force norm =             0.273021 RMSD =   0.00017769
  Iteration =      5 Force norm =             0.223264 RMSD =   0.00048683
  Iteration =      6 Force norm =             0.294726 RMSD =   0.00022731
  Iteration =      7 Force norm =             0.140313 RMSD =   0.00017776
  Iteration =      8 Force norm =             0.100497 RMSD =   0.00010218
  Iteration =      9 Force norm =             0.091575 RMSD =   0.00011575
  Iteration =     10 Force norm =             0.088514 RMSD =   0.00008713
  Iteration =     11 Force norm =             0.028032 RMSD =   0.00002083
  Iteration =     12 Force norm =             0.021516 RMSD =   0.00001264
  Iteration =     13 Force norm =             0.020227 RMSD =   0.00002895
  Iteration =     14 Force norm =             0.018826 RMSD =   0.00003049
  Iteration =     15 Force norm =             0.025928 RMSD =   0.00003322
  Iteration =     16 Force norm =             0.022558 RMSD =   0.00000172
  Iteration =     17 Force norm =             0.017010 RMSD =   0.00000442
  Iteration =     18 Force norm =             0.007233 RMSD =   0.00002117
  Iteration =     19 Force norm =             0.006301 RMSD =   0.00000545
  Iteration =     20 Force norm =             0.012411 RMSD =   0.00001692
  Iteration =     21 Force norm =             0.004588 RMSD =   0.00000310
  Iteration =     22 Force norm =             0.004588 RMSD =   0.00000000
  Iteration =     23 Force norm =             0.002821 RMSD =   0.00000087
  Iteration =     24 Force norm =             0.002877 RMSD =   0.00000117
  Iteration =     25 Force norm =             0.002402 RMSD =   0.00000293
  Iteration =     26 Force norm =             0.002568 RMSD =   0.00000311
  Iteration =     27 Force norm =             0.002060 RMSD =   0.00000245
  Iteration =     28 Force norm =             0.000648 RMSD =   0.00000088
  Iteration =     29 Force norm =             0.000495 RMSD =   0.00000029
  Iteration =     30 Force norm =             0.000621 RMSD =   0.00000083
  Iteration =     31 Force norm =             0.000323 RMSD =   0.00000026
  Iteration =     32 Force norm =             0.000224 RMSD =   0.00000011
  Iteration =     33 Force norm =             0.000249 RMSD =   0.00000027
  Iteration =     34 Force norm =             0.000233 RMSD =   0.00000035
  Iteration =     35 Force norm =             0.000416 RMSD =   0.00000057
  Iteration =     36 Force norm =             0.000333 RMSD =   0.00000002
  Iteration =     37 Force norm =             0.000333 RMSD =   0.00000000
  Iteration =     38 Force norm =             0.000112 RMSD =   0.00000007
  Iteration =     39 Force norm =             0.000091 RMSD =   0.00000002

  **** Optimisation achieved ****

  Step:     13 : Elow =  -443.42571 Ehigh =  -443.39089 MaxD =     0.13579

  Iteration =      0 Force norm =             0.000091 RMSD =   0.00000000
  Iteration =      1 Force norm =             0.397528 RMSD =   0.00000000
  Iteration =      2 Force norm =             0.190769 RMSD =   0.00009949
  Iteration =      3 Force norm =             0.112359 RMSD =   0.00009932
  Iteration =      4 Force norm =             0.108721 RMSD =   0.00007978
  Iteration =      5 Force norm =             0.072466 RMSD =   0.00009189
  Iteration =      6 Force norm =             0.083372 RMSD =   0.00008008
  Iteration =      7 Force norm =             0.039136 RMSD =   0.00002692
  Iteration =      8 Force norm =             0.036256 RMSD =   0.00001919
  Iteration =      9 Force norm =             0.041346 RMSD =   0.00006239
  Iteration =     10 Force norm =             0.041257 RMSD =   0.00003382
  Iteration =     11 Force norm =             0.020019 RMSD =   0.00002833
  Iteration =     12 Force norm =             0.012768 RMSD =   0.00001797
  Iteration =     13 Force norm =             0.009327 RMSD =   0.00000935
  Iteration =     14 Force norm =             0.005671 RMSD =   0.00000481
  Iteration =     15 Force norm =             0.003109 RMSD =   0.00000706
  Iteration =     16 Force norm =             0.002674 RMSD =   0.00000154
  Iteration =     17 Force norm =             0.001972 RMSD =   0.00000411
  Iteration =     18 Force norm =             0.002339 RMSD =   0.00000139
  Iteration =     19 Force norm =             0.000890 RMSD =   0.00000126
  Iteration =     20 Force norm =             0.000584 RMSD =   0.00000074
  Iteration =     21 Force norm =             0.000836 RMSD =   0.00000070
  Iteration =     22 Force norm =             0.000423 RMSD =   0.00000054
  Iteration =     23 Force norm =             0.000339 RMSD =   0.00000043
  Iteration =     24 Force norm =             0.000496 RMSD =   0.00000059
  Iteration =     25 Force norm =             0.000323 RMSD =   0.00000056
  Iteration =     26 Force norm =             0.000202 RMSD =   0.00000015
  Iteration =     27 Force norm =             0.000162 RMSD =   0.00000030
  Iteration =     28 Force norm =             0.000213 RMSD =   0.00000021
  Iteration =     29 Force norm =             0.000213 RMSD =   0.00000000
  Iteration =     30 Force norm =             0.000059 RMSD =   0.00000005

  **** Optimisation achieved ****

  Step:     14 : Elow =  -443.39089 Ehigh =  -443.24900 MaxD =     0.13026

  Iteration =      0 Force norm =             0.000064 RMSD =   0.00000000
  Iteration =      1 Force norm =             0.447557 RMSD =   0.00000000
  Iteration =      2 Force norm =             0.325812 RMSD =   0.00006972
  Iteration =      3 Force norm =             0.244720 RMSD =   0.00025889
  Iteration =      4 Force norm =             0.291149 RMSD =   0.00022466
  Iteration =      5 Force norm =             0.218011 RMSD =   0.00045038
  Iteration =      6 Force norm =             0.376742 RMSD =   0.00032460
  Iteration =      7 Force norm =             0.114600 RMSD =   0.00007296
  Iteration =      8 Force norm =             0.079149 RMSD =   0.00005382
  Iteration =      9 Force norm =             0.063375 RMSD =   0.00009404
  Iteration =     10 Force norm =             0.068785 RMSD =   0.00005295
  Iteration =     11 Force norm =             0.020484 RMSD =   0.00006057
  Iteration =     12 Force norm =             0.014979 RMSD =   0.00001309
  Iteration =     13 Force norm =             0.013407 RMSD =   0.00002596
  Iteration =     14 Force norm =             0.021834 RMSD =   0.00001642
  Iteration =     15 Force norm =             0.021834 RMSD =   0.00000000
  Iteration =     16 Force norm =             0.013221 RMSD =   0.00000198
  Iteration =     17 Force norm =             0.007998 RMSD =   0.00000381
  Iteration =     18 Force norm =             0.009276 RMSD =   0.00000328
  Iteration =     19 Force norm =             0.010379 RMSD =   0.00001156
  Iteration =     20 Force norm =             0.009721 RMSD =   0.00001444
  Iteration =     21 Force norm =             0.008528 RMSD =   0.00000823
  Iteration =     22 Force norm =             0.002637 RMSD =   0.00000693
  Iteration =     23 Force norm =             0.001808 RMSD =   0.00000204
  Iteration =     24 Force norm =             0.002520 RMSD =   0.00000253
  Iteration =     25 Force norm =             0.002520 RMSD =   0.00000000
  Iteration =     26 Force norm =             0.000916 RMSD =   0.00000051
  Iteration =     27 Force norm =             0.000775 RMSD =   0.00000017
  Iteration =     28 Force norm =             0.000567 RMSD =   0.00000148
  Iteration =     29 Force norm =             0.000916 RMSD =   0.00000074
  Iteration =     30 Force norm =             0.000481 RMSD =   0.00000034
  Iteration =     31 Force norm =             0.000218 RMSD =   0.00000045
  Iteration =     32 Force norm =             0.000200 RMSD =   0.00000015
  Iteration =     33 Force norm =             0.000426 RMSD =   0.00000064
  Iteration =     34 Force norm =             0.000134 RMSD =   0.00000012
  Iteration =     35 Force norm =             0.000134 RMSD =   0.00000000
  Iteration =     36 Force norm =             0.000105 RMSD =   0.00000005
  Iteration =     37 Force norm =             0.000077 RMSD =   0.00000003

  **** Optimisation achieved ****

  Step:     15 : Elow =  -443.29197 Ehigh =  -443.24900 MaxD =     0.12341

  Iteration =      0 Force norm =             0.000077 RMSD =   0.00000000
  Iteration =      1 Force norm =             0.322723 RMSD =   0.00000000
  Iteration =      2 Force norm =             0.318823 RMSD =   0.00018595
  Iteration =      3 Force norm =             0.095401 RMSD =   0.00006291
  Iteration =      4 Force norm =             0.072494 RMSD =   0.00002858
  Iteration =      5 Force norm =             0.071493 RMSD =   0.00008383
  Iteration =      6 Force norm =             0.120151 RMSD =   0.00008791
  Iteration =      7 Force norm =             0.033955 RMSD =   0.00002429
  Iteration =      8 Force norm =             0.026855 RMSD =   0.00001107
  Iteration =      9 Force norm =             0.032749 RMSD =   0.00003059
  Iteration =     10 Force norm =             0.029183 RMSD =   0.00004546
  Iteration =     11 Force norm =             0.025975 RMSD =   0.00002412
  Iteration =     12 Force norm =             0.008675 RMSD =   0.00001496
  Iteration =     13 Force norm =             0.005500 RMSD =   0.00000514
  Iteration =     14 Force norm =             0.003958 RMSD =   0.00000475
  Iteration =     15 Force norm =             0.006907 RMSD =   0.00000451
  Iteration =     16 Force norm =             0.006907 RMSD =   0.00000000
  Iteration =     17 Force norm =             0.003626 RMSD =   0.00000067
  Iteration =     18 Force norm =             0.001379 RMSD =   0.00000083
  Iteration =     19 Force norm =             0.001389 RMSD =   0.00000039
  Iteration =     20 Force norm =             0.001251 RMSD =   0.00000193
  Iteration =     21 Force norm =             0.001166 RMSD =   0.00000151
  Iteration =     22 Force norm =             0.001167 RMSD =   0.00000128
  Iteration =     23 Force norm =             0.000931 RMSD =   0.00000011
  Iteration =     24 Force norm =             0.000759 RMSD =   0.00000009
  Iteration =     25 Force norm =             0.000599 RMSD =   0.00000008
  Iteration =     26 Force norm =             0.000463 RMSD =   0.00000007
  Iteration =     27 Force norm =             0.000338 RMSD =   0.00000008
  Iteration =     28 Force norm =             0.000249 RMSD =   0.00000007
  Iteration =     29 Force norm =             0.000187 RMSD =   0.00000007
  Iteration =     30 Force norm =             0.000178 RMSD =   0.00000001
  Iteration =     31 Force norm =             0.000169 RMSD =   0.00000002
  Iteration =     32 Force norm =             0.000169 RMSD =   0.00000000
  Iteration =     33 Force norm =             0.000305 RMSD =   0.00000014
  Iteration =     34 Force norm =             0.000201 RMSD =   0.00000008
  Iteration =     35 Force norm =             0.000125 RMSD =   0.00000036
  Iteration =     36 Force norm =             0.000103 RMSD =   0.00000016
  Iteration =     37 Force norm =             0.000098 RMSD =   0.00000011

  **** Optimisation achieved ****

  Step:     16 : Elow =  -443.24900 Ehigh =  -443.12375 MaxD =     0.11825

  Iteration =      0 Force norm =             0.000059 RMSD =   0.00000000
  Iteration =      1 Force norm =             0.383151 RMSD =   0.00000000
  Iteration =      2 Force norm =             0.254218 RMSD =   0.00011111
  Iteration =      3 Force norm =             0.235194 RMSD =   0.00022020
  Iteration =      4 Force norm =             0.319527 RMSD =   0.00031036
  Iteration =      5 Force norm =             0.212795 RMSD =   0.00037393
  Iteration =      6 Force norm =             0.156636 RMSD =   0.00015155
  Iteration =      7 Force norm =             0.096276 RMSD =   0.00006538
  Iteration =      8 Force norm =             0.070166 RMSD =   0.00007520
  Iteration =      9 Force norm =             0.106843 RMSD =   0.00010619
  Iteration =     10 Force norm =             0.021644 RMSD =   0.00003406
  Iteration =     11 Force norm =             0.015998 RMSD =   0.00000790
  Iteration =     12 Force norm =             0.012596 RMSD =   0.00002019
  Iteration =     13 Force norm =             0.014304 RMSD =   0.00001017
  Iteration =     14 Force norm =             0.009188 RMSD =   0.00000807
  Iteration =     15 Force norm =             0.006930 RMSD =   0.00001207
  Iteration =     16 Force norm =             0.007610 RMSD =   0.00001239
  Iteration =     17 Force norm =             0.007610 RMSD =   0.00000000
  Iteration =     18 Force norm =             0.004412 RMSD =   0.00000162
  Iteration =     19 Force norm =             0.004451 RMSD =   0.00000198
  Iteration =     20 Force norm =             0.004849 RMSD =   0.00000539
  Iteration =     21 Force norm =             0.005005 RMSD =   0.00000301
  Iteration =     22 Force norm =             0.002305 RMSD =   0.00000267
  Iteration =     23 Force norm =             0.001666 RMSD =   0.00000171
  Iteration =     24 Force norm =             0.001928 RMSD =   0.00000230
  Iteration =     25 Force norm =             0.002684 RMSD =   0.00000343
  Iteration =     26 Force norm =             0.000859 RMSD =   0.00000117
  Iteration =     27 Force norm =             0.000859 RMSD =   0.00000000
  Iteration =     28 Force norm =             0.000524 RMSD =   0.00000026
  Iteration =     29 Force norm =             0.000344 RMSD =   0.00000011
  Iteration =     30 Force norm =             0.000201 RMSD =   0.00000033
  Iteration =     31 Force norm =             0.000258 RMSD =   0.00000015
  Iteration =     32 Force norm =             0.000151 RMSD =   0.00000007
  Iteration =     33 Force norm =             0.000093 RMSD =   0.00000016

  **** Optimisation achieved ****

  Step:     17 : Elow =  -443.15242 Ehigh =  -443.12375 MaxD =     0.11231

  Iteration =      0 Force norm =             0.000093 RMSD =   0.00000000
  Iteration =      1 Force norm =             0.259665 RMSD =   0.00000000
  Iteration =      2 Force norm =             0.160546 RMSD =   0.00010630
  Iteration =      3 Force norm =             0.080191 RMSD =   0.00004580
  Iteration =      4 Force norm =             0.063573 RMSD =   0.00004389
  Iteration =      5 Force norm =             0.062133 RMSD =   0.00006884
  Iteration =      6 Force norm =             0.054271 RMSD =   0.00004072
  Iteration =      7 Force norm =             0.026882 RMSD =   0.00002433
  Iteration =      8 Force norm =             0.024016 RMSD =   0.00002050
  Iteration =      9 Force norm =             0.026769 RMSD =   0.00003341
  Iteration =     10 Force norm =             0.037073 RMSD =   0.00004367
  Iteration =     11 Force norm =             0.008862 RMSD =   0.00000784
  Iteration =     12 Force norm =             0.008232 RMSD =   0.00000048
  Iteration =     13 Force norm =             0.004670 RMSD =   0.00000814
  Iteration =     14 Force norm =             0.004755 RMSD =   0.00000405
  Iteration =     15 Force norm =             0.001869 RMSD =   0.00000286
  Iteration =     16 Force norm =             0.000942 RMSD =   0.00000060
  Iteration =     17 Force norm =             0.000818 RMSD =   0.00000062
  Iteration =     18 Force norm =             0.000765 RMSD =   0.00000109
  Iteration =     19 Force norm =             0.001153 RMSD =   0.00000143
  Iteration =     20 Force norm =             0.000730 RMSD =   0.00000054
  Iteration =     21 Force norm =             0.000730 RMSD =   0.00000000
  Iteration =     22 Force norm =             0.000285 RMSD =   0.00000018
  Iteration =     23 Force norm =             0.000213 RMSD =   0.00000006
  Iteration =     24 Force norm =             0.000199 RMSD =   0.00000025
  Iteration =     25 Force norm =             0.000176 RMSD =   0.00000022
  Iteration =     26 Force norm =             0.000265 RMSD =   0.00000023
  Iteration =     27 Force norm =             0.000080 RMSD =   0.00000006

  **** Optimisation achieved ****

  Step:     18 : Elow =  -443.12375 Ehigh =  -442.99460 MaxD =     0.10749

  Iteration =      0 Force norm =             0.000098 RMSD =   0.00000000
  Iteration =      1 Force norm =             0.330952 RMSD =   0.00000000
  Iteration =      2 Force norm =             0.277500 RMSD =   0.00017242
  Iteration =      3 Force norm =             0.222310 RMSD =   0.00016624
  Iteration =      4 Force norm =             0.207798 RMSD =   0.00033896
  Iteration =      5 Force norm =             0.223734 RMSD =   0.00023718
  Iteration =      6 Force norm =             0.104621 RMSD =   0.00013745
  Iteration =      7 Force norm =             0.076746 RMSD =   0.00006262
  Iteration =      8 Force norm =             0.069376 RMSD =   0.00008052
  Iteration =      9 Force norm =             0.102265 RMSD =   0.00008250
  Iteration =     10 Force norm =             0.078590 RMSD =   0.00000758
  Iteration =     11 Force norm =             0.058175 RMSD =   0.00000652
  Iteration =     12 Force norm =             0.043986 RMSD =   0.00000467
  Iteration =     13 Force norm =             0.032984 RMSD =   0.00000391
  Iteration =     14 Force norm =             0.023235 RMSD =   0.00000393
  Iteration =     15 Force norm =             0.016807 RMSD =   0.00000317
  Iteration =     16 Force norm =             0.012660 RMSD =   0.00000264
  Iteration =     17 Force norm =             0.012078 RMSD =   0.00000049
  Iteration =     18 Force norm =             0.012078 RMSD =   0.00000000
  Iteration =     19 Force norm =             0.009238 RMSD =   0.00000126
  Iteration =     20 Force norm =             0.008529 RMSD =   0.00000581
  Iteration =     21 Force norm =             0.008877 RMSD =   0.00000670
  Iteration =     22 Force norm =             0.010323 RMSD =   0.00001289
  Iteration =     23 Force norm =             0.006988 RMSD =   0.00001074
  Iteration =     24 Force norm =             0.003590 RMSD =   0.00000237
  Iteration =     25 Force norm =             0.002291 RMSD =   0.00000363
  Iteration =     26 Force norm =             0.003015 RMSD =   0.00000387
  Iteration =     27 Force norm =             0.000923 RMSD =   0.00000097
  Iteration =     28 Force norm =             0.000923 RMSD =   0.00000000
  Iteration =     29 Force norm =             0.001039 RMSD =   0.00000048
  Iteration =     30 Force norm =             0.000666 RMSD =   0.00000028
  Iteration =     31 Force norm =             0.000369 RMSD =   0.00000084
  Iteration =     32 Force norm =             0.000538 RMSD =   0.00000035
  Iteration =     33 Force norm =             0.000238 RMSD =   0.00000011
  Iteration =     34 Force norm =             0.000144 RMSD =   0.00000017
  Iteration =     35 Force norm =             0.000113 RMSD =   0.00000011
  Iteration =     36 Force norm =             0.000164 RMSD =   0.00000016
  Iteration =     37 Force norm =             0.000066 RMSD =   0.00000007

  **** Optimisation achieved ****

  Step:     19 : Elow =  -443.03051 Ehigh =  -442.99460 MaxD =     0.10198

  Iteration =      0 Force norm =             0.000066 RMSD =   0.00000000
  Iteration =      1 Force norm =             0.210409 RMSD =   0.00000000
  Iteration =      2 Force norm =             0.135943 RMSD =   0.00008739
  Iteration =      3 Force norm =             0.067768 RMSD =   0.00003836
  Iteration =      4 Force norm =             0.053299 RMSD =   0.00003871
  Iteration =      5 Force norm =             0.051007 RMSD =   0.00005622
  Iteration =      6 Force norm =             0.044100 RMSD =   0.00003418
  Iteration =      7 Force norm =             0.021917 RMSD =   0.00002007
  Iteration =      8 Force norm =             0.019634 RMSD =   0.00001697
  Iteration =      9 Force norm =             0.021512 RMSD =   0.00002756
  Iteration =     10 Force norm =             0.028301 RMSD =   0.00003289
  Iteration =     11 Force norm =             0.006630 RMSD =   0.00000634
  Iteration =     12 Force norm =             0.006630 RMSD =   0.00000000
  Iteration =     13 Force norm =             0.005097 RMSD =   0.00000273
  Iteration =     14 Force norm =             0.003135 RMSD =   0.00000373
  Iteration =     15 Force norm =             0.003346 RMSD =   0.00000203
  Iteration =     16 Force norm =             0.001090 RMSD =   0.00000172
  Iteration =     17 Force norm =             0.000828 RMSD =   0.00000035
  Iteration =     18 Force norm =             0.001064 RMSD =   0.00000158
  Iteration =     19 Force norm =             0.001367 RMSD =   0.00000090
  Iteration =     20 Force norm =             0.000426 RMSD =   0.00000035
  Iteration =     21 Force norm =             0.000276 RMSD =   0.00000016
  Iteration =     22 Force norm =             0.000307 RMSD =   0.00000045
  Iteration =     23 Force norm =             0.000249 RMSD =   0.00000042
  Iteration =     24 Force norm =             0.000258 RMSD =   0.00000020
  Iteration =     25 Force norm =             0.000066 RMSD =   0.00000020

  **** Optimisation achieved ****

  Step:     20 : Elow =  -442.99460 Ehigh =  -442.88692 MaxD =     0.09754

  Iteration =      0 Force norm =             0.000080 RMSD =   0.00000000
  Iteration =      1 Force norm =             0.417442 RMSD =   0.00000000
  Iteration =      2 Force norm =             0.294384 RMSD =   0.00008592
  Iteration =      3 Force norm =             0.241083 RMSD =   0.00026163
  Iteration =      4 Force norm =             0.288542 RMSD =   0.00026914
  Iteration =      5 Force norm =             0.216816 RMSD =   0.00037915
  Iteration =      6 Force norm =             0.122862 RMSD =   0.00009712
  Iteration =      7 Force norm =             0.086879 RMSD =   0.00005767
  Iteration =      8 Force norm =             0.071812 RMSD =   0.00009101
  Iteration =      9 Force norm =             0.106505 RMSD =   0.00009929
  Iteration =     10 Force norm =             0.018828 RMSD =   0.00002976
  Iteration =     11 Force norm =             0.012606 RMSD =   0.00000736
  Iteration =     12 Force norm =             0.008606 RMSD =   0.00001359
  Iteration =     13 Force norm =             0.011046 RMSD =   0.00001044
  Iteration =     14 Force norm =             0.008026 RMSD =   0.00000620
  Iteration =     15 Force norm =             0.008026 RMSD =   0.00000000
  Iteration =     16 Force norm =             0.005040 RMSD =   0.00000079
  Iteration =     17 Force norm =             0.003409 RMSD =   0.00000173
  Iteration =     18 Force norm =             0.003668 RMSD =   0.00000168
  Iteration =     19 Force norm =             0.002930 RMSD =   0.00000400
  Iteration =     20 Force norm =             0.002891 RMSD =   0.00000478
  Iteration =     21 Force norm =             0.001612 RMSD =   0.00000201
  Iteration =     22 Force norm =             0.000536 RMSD =   0.00000097
  Iteration =     23 Force norm =             0.000356 RMSD =   0.00000046
  Iteration =     24 Force norm =             0.000679 RMSD =   0.00000047
  Iteration =     25 Force norm =             0.000679 RMSD =   0.00000000
  Iteration =     26 Force norm =             0.000169 RMSD =   0.00000015
  Iteration =     27 Force norm =             0.000122 RMSD =   0.00000003
  Iteration =     28 Force norm =             0.000106 RMSD =   0.00000011
  Iteration =     29 Force norm =             0.000062 RMSD =   0.00000010

  **** Optimisation achieved ****

  Step:     21 : Elow =  -442.88692 Ehigh =  -442.77994 MaxD =     0.08865

  Iteration =      0 Force norm =             0.000066 RMSD =   0.00000000
  Iteration =      1 Force norm =             0.353044 RMSD =   0.00000000
  Iteration =      2 Force norm =             0.259956 RMSD =   0.00014203
  Iteration =      3 Force norm =             0.217068 RMSD =   0.00018269
  Iteration =      4 Force norm =             0.259343 RMSD =   0.00033290
  Iteration =      5 Force norm =             0.274337 RMSD =   0.00030689
  Iteration =      6 Force norm =             0.091402 RMSD =   0.00007182
  Iteration =      7 Force norm =             0.067105 RMSD =   0.00004127
  Iteration =      8 Force norm =             0.060385 RMSD =   0.00007704
  Iteration =      9 Force norm =             0.056444 RMSD =   0.00004209
  Iteration =     10 Force norm =             0.017495 RMSD =   0.00004032
  Iteration =     11 Force norm =             0.009282 RMSD =   0.00001119
  Iteration =     12 Force norm =             0.005564 RMSD =   0.00000978
  Iteration =     13 Force norm =             0.004556 RMSD =   0.00000205
  Iteration =     14 Force norm =             0.004556 RMSD =   0.00000000
  Iteration =     15 Force norm =             0.003385 RMSD =   0.00000153
  Iteration =     16 Force norm =             0.003317 RMSD =   0.00000224
  Iteration =     17 Force norm =             0.004473 RMSD =   0.00000571
  Iteration =     18 Force norm =             0.005040 RMSD =   0.00000550
  Iteration =     19 Force norm =             0.001478 RMSD =   0.00000163
  Iteration =     20 Force norm =             0.000944 RMSD =   0.00000069
  Iteration =     21 Force norm =             0.000842 RMSD =   0.00000127
  Iteration =     22 Force norm =             0.000830 RMSD =   0.00000061
  Iteration =     23 Force norm =             0.000300 RMSD =   0.00000052
  Iteration =     24 Force norm =             0.000188 RMSD =   0.00000020
  Iteration =     25 Force norm =             0.000207 RMSD =   0.00000018
  Iteration =     26 Force norm =             0.000096 RMSD =   0.00000010

  **** Optimisation achieved ****

  Step:     22 : Elow =  -442.77994 Ehigh =  -442.69355 MaxD =     0.08045

  Iteration =      0 Force norm =             0.000062 RMSD =   0.00000000
  Iteration =      1 Force norm =             0.297486 RMSD =   0.00000000
  Iteration =      2 Force norm =             0.412741 RMSD =   0.00023740
  Iteration =      3 Force norm =             0.194934 RMSD =   0.00009529
  Iteration =      4 Force norm =             0.166820 RMSD =   0.00014179
  Iteration =      5 Force norm =             0.150621 RMSD =   0.00018684
  Iteration =      6 Force norm =             0.219292 RMSD =   0.00023337
  Iteration =      7 Force norm =             0.066018 RMSD =   0.00007892
  Iteration =      8 Force norm =             0.066018 RMSD =   0.00000000
  Iteration =      9 Force norm =             0.046509 RMSD =   0.00000743
  Iteration =     10 Force norm =             0.034864 RMSD =   0.00002424
  Iteration =     11 Force norm =             0.025938 RMSD =   0.00002274
  Iteration =     12 Force norm =             0.015029 RMSD =   0.00002893
  Iteration =     13 Force norm =             0.012823 RMSD =   0.00000516
  Iteration =     14 Force norm =             0.011366 RMSD =   0.00000044
  Iteration =     15 Force norm =             0.009231 RMSD =   0.00000062
  Iteration =     16 Force norm =             0.007464 RMSD =   0.00000053
  Iteration =     17 Force norm =             0.005919 RMSD =   0.00000052
  Iteration =     18 Force norm =             0.004985 RMSD =   0.00000037
  Iteration =     19 Force norm =             0.003831 RMSD =   0.00000055
  Iteration =     20 Force norm =             0.003831 RMSD =   0.00000000
  Iteration =     21 Force norm =             0.001924 RMSD =   0.00000067
  Iteration =     22 Force norm =             0.001993 RMSD =   0.00000069
  Iteration =     23 Force norm =             0.002743 RMSD =   0.00000229
  Iteration =     24 Force norm =             0.002178 RMSD =   0.00000286
  Iteration =     25 Force norm =             0.003686 RMSD =   0.00000365
  Iteration =     26 Force norm =             0.000625 RMSD =   0.00000083
  Iteration =     27 Force norm =             0.000625 RMSD =   0.00000000
  Iteration =     28 Force norm =             0.000329 RMSD =   0.00000017
  Iteration =     29 Force norm =             0.000232 RMSD =   0.00000007
  Iteration =     30 Force norm =             0.000149 RMSD =   0.00000025
  Iteration =     31 Force norm =             0.000116 RMSD =   0.00000015
  Iteration =     32 Force norm =             0.000144 RMSD =   0.00000010
  Iteration =     33 Force norm =             0.000058 RMSD =   0.00000003

  **** Optimisation achieved ****

  Step:     23 : Elow =  -442.69355 Ehigh =  -442.60902 MaxD =     0.07309

  Iteration =      0 Force norm =             0.000096 RMSD =   0.00000000
  Iteration =      1 Force norm =             0.252545 RMSD =   0.00000000
  Iteration =      2 Force norm =             0.312636 RMSD =   0.00018380
  Iteration =      3 Force norm =             0.172719 RMSD =   0.00010130
  Iteration =      4 Force norm =             0.141191 RMSD =   0.00016979
  Iteration =      5 Force norm =             0.122998 RMSD =   0.00017229
  Iteration =      6 Force norm =             0.106795 RMSD =   0.00009689
  Iteration =      7 Force norm =             0.049023 RMSD =   0.00005809
  Iteration =      8 Force norm =             0.035774 RMSD =   0.00003827
  Iteration =      9 Force norm =             0.037046 RMSD =   0.00004074
  Iteration =     10 Force norm =             0.026297 RMSD =   0.00000349
  Iteration =     11 Force norm =             0.026297 RMSD =   0.00000000
  Iteration =     12 Force norm =             0.012625 RMSD =   0.00000355
  Iteration =     13 Force norm =             0.008443 RMSD =   0.00000402
  Iteration =     14 Force norm =             0.007314 RMSD =   0.00000445
  Iteration =     15 Force norm =             0.002875 RMSD =   0.00000577
  Iteration =     16 Force norm =             0.003466 RMSD =   0.00000260
  Iteration =     17 Force norm =             0.001731 RMSD =   0.00000096
  Iteration =     18 Force norm =             0.001352 RMSD =   0.00000099
  Iteration =     19 Force norm =             0.001122 RMSD =   0.00000189
  Iteration =     20 Force norm =             0.001587 RMSD =   0.00000179
  Iteration =     21 Force norm =             0.000462 RMSD =   0.00000065
  Iteration =     22 Force norm =             0.000462 RMSD =   0.00000000
[...]
  Iteration =      4 Force norm =             0.001511 RMSD =   0.00000151
  Iteration =      5 Force norm =             0.001511 RMSD =   0.00000000
  Iteration =      6 Force norm =             0.001010 RMSD =   0.00000013
  Iteration =      7 Force norm =             0.000344 RMSD =   0.00000032
  Iteration =      8 Force norm =             0.000255 RMSD =   0.00000012
  Iteration =      9 Force norm =             0.000136 RMSD =   0.00000026
  Iteration =     10 Force norm =             0.000136 RMSD =   0.00000012
  Iteration =     11 Force norm =             0.000033 RMSD =   0.00000004

  **** Optimisation achieved ****

  Step:     52 : Elow =  -442.15917 Ehigh =  -442.15913 MaxD =     0.00369

  Iteration =      0 Force norm =             0.000044 RMSD =   0.00000000
  Iteration =      1 Force norm =             0.001319 RMSD =   0.00000000
  Iteration =      2 Force norm =             0.001405 RMSD =   0.00000115
  Iteration =      3 Force norm =             0.001059 RMSD =   0.00000318
  Iteration =      4 Force norm =             0.000731 RMSD =   0.00000095
  Iteration =      5 Force norm =             0.000360 RMSD =   0.00000032
  Iteration =      6 Force norm =             0.000215 RMSD =   0.00000026
  Iteration =      7 Force norm =             0.000104 RMSD =   0.00000015
  Iteration =      8 Force norm =             0.000060 RMSD =   0.00000009

  **** Optimisation achieved ****

  Step:     53 : Elow =  -442.15913 Ehigh =  -442.15861 MaxD =     0.00332

  Iteration =      0 Force norm =             0.000033 RMSD =   0.00000000
  Iteration =      1 Force norm =             0.001150 RMSD =   0.00000000
  Iteration =      2 Force norm =             0.001484 RMSD =   0.00000150
  Iteration =      3 Force norm =             0.001137 RMSD =   0.00000258
  Iteration =      4 Force norm =             0.000476 RMSD =   0.00000053
  Iteration =      5 Force norm =             0.000409 RMSD =   0.00000004
  Iteration =      6 Force norm =             0.000130 RMSD =   0.00000033
  Iteration =      7 Force norm =             0.000080 RMSD =   0.00000013

  **** Optimisation achieved ****

  Step:     54 : Elow =  -442.15863 Ehigh =  -442.15861 MaxD =     0.00299

  Iteration =      0 Force norm =             0.000080 RMSD =   0.00000000
  Iteration =      1 Force norm =             0.000348 RMSD =   0.00000000
  Iteration =      2 Force norm =             0.000233 RMSD =   0.00000006
  Iteration =      3 Force norm =             0.000190 RMSD =   0.00000015
  Iteration =      4 Force norm =             0.000144 RMSD =   0.00000017
  Iteration =      5 Force norm =             0.000137 RMSD =   0.00000026
  Iteration =      6 Force norm =             0.000089 RMSD =   0.00000009

  **** Optimisation achieved ****

  Step:     55 : Elow =  -442.15861 Ehigh =  -442.15826 MaxD =     0.00269

  Iteration =      0 Force norm =             0.000060 RMSD =   0.00000000
  Iteration =      1 Force norm =             0.000950 RMSD =   0.00000005
  Iteration =      2 Force norm =             0.000954 RMSD =   0.00000002
  Iteration =      3 Force norm =             0.000952 RMSD =   0.00000002
  Iteration =      4 Force norm =             0.001015 RMSD =   0.00000101
  Iteration =      5 Force norm =             0.001402 RMSD =   0.00000103
  Iteration =      6 Force norm =             0.000904 RMSD =   0.00000124
  Iteration =      7 Force norm =             0.000604 RMSD =   0.00000090
  Iteration =      8 Force norm =             0.000219 RMSD =   0.00000027
  Iteration =      9 Force norm =             0.000219 RMSD =   0.00000000
  Iteration =     10 Force norm =             0.000114 RMSD =   0.00000002
  Iteration =     11 Force norm =             0.000025 RMSD =   0.00000003

  **** Optimisation achieved ****

  Step:     56 : Elow =  -442.15827 Ehigh =  -442.15826 MaxD =     0.00242

  Iteration =      0 Force norm =             0.000025 RMSD =   0.00000000
  Iteration =      1 Force norm =             0.000213 RMSD =   0.00000000
  Iteration =      2 Force norm =             0.000145 RMSD =   0.00000005
  Iteration =      3 Force norm =             0.000128 RMSD =   0.00000011
  Iteration =      4 Force norm =             0.000092 RMSD =   0.00000014

  **** Optimisation achieved ****

  Step:     57 : Elow =  -442.15826 Ehigh =  -442.15803 MaxD =     0.00218

  Iteration =      0 Force norm =             0.000089 RMSD =   0.00000000
  Iteration =      1 Force norm =             0.000741 RMSD =   0.00000002
  Iteration =      2 Force norm =             0.000743 RMSD =   0.00000001
  Iteration =      3 Force norm =             0.000754 RMSD =   0.00000003
  Iteration =      4 Force norm =             0.000780 RMSD =   0.00000007
  Iteration =      5 Force norm =             0.000797 RMSD =   0.00000007
  Iteration =      6 Force norm =             0.000811 RMSD =   0.00000005
  Iteration =      7 Force norm =             0.001007 RMSD =   0.00000094
  Iteration =      8 Force norm =             0.000816 RMSD =   0.00000176
  Iteration =      9 Force norm =             0.000325 RMSD =   0.00000046
  Iteration =     10 Force norm =             0.000058 RMSD =   0.00000020

  **** Optimisation achieved ****

  Step:     58 : Elow =  -442.15804 Ehigh =  -442.15803 MaxD =     0.00196

  Iteration =      0 Force norm =             0.000058 RMSD =   0.00000000
  Iteration =      1 Force norm =             0.000150 RMSD =   0.00000000
  Iteration =      2 Force norm =             0.000112 RMSD =   0.00000006
  Iteration =      3 Force norm =             0.000099 RMSD =   0.00000011

  **** Optimisation achieved ****

  Step:     59 : Elow =  -442.15803 Ehigh =  -442.15788 MaxD =     0.00177

  Iteration =      0 Force norm =             0.000092 RMSD =   0.00000000
  Iteration =      1 Force norm =             0.000685 RMSD =   0.00000009
  Iteration =      2 Force norm =             0.000685 RMSD =   0.00000000
  Iteration =      3 Force norm =             0.000559 RMSD =   0.00000017
  Iteration =      4 Force norm =             0.000755 RMSD =   0.00000060
  Iteration =      5 Force norm =             0.000568 RMSD =   0.00000108
  Iteration =      6 Force norm =             0.000331 RMSD =   0.00000041
  Iteration =      7 Force norm =             0.000071 RMSD =   0.00000024

  **** Optimisation achieved ****

  Step:     60 : Elow =  -442.15789 Ehigh =  -442.15788 MaxD =     0.00159

  Iteration =      0 Force norm =             0.000071 RMSD =   0.00000000
  Iteration =      1 Force norm =             0.000128 RMSD =   0.00000000
  Iteration =      2 Force norm =             0.000081 RMSD =   0.00000002

  **** Optimisation achieved ****

  Step:     61 : Elow =  -442.15788 Ehigh =  -442.15778 MaxD =     0.00143

  Iteration =      0 Force norm =             0.000099 RMSD =   0.00000000
  Iteration =      1 Force norm =             0.000562 RMSD =   0.00000019
  Iteration =      2 Force norm =             0.000562 RMSD =   0.00000000
  Iteration =      3 Force norm =             0.000415 RMSD =   0.00000023
  Iteration =      4 Force norm =             0.000449 RMSD =   0.00000067
  Iteration =      5 Force norm =             0.001008 RMSD =   0.00000103
  Iteration =      6 Force norm =             0.000187 RMSD =   0.00000021
  Iteration =      7 Force norm =             0.000187 RMSD =   0.00000000
  Iteration =      8 Force norm =             0.000113 RMSD =   0.00000002
  Iteration =      9 Force norm =             0.000045 RMSD =   0.00000005

  **** Optimisation achieved ****

  Step:     62 : Elow =  -442.15778 Ehigh =  -442.15778 MaxD =     0.00129

  Iteration =      0 Force norm =             0.000045 RMSD =   0.00000000
  Iteration =      1 Force norm =             0.000065 RMSD =   0.00000000

  **** Optimisation achieved ****

  Step:     63 : Elow =  -442.15778 Ehigh =  -442.15772 MaxD =     0.00116

  Iteration =      0 Force norm =             0.000081 RMSD =   0.00000000
  Iteration =      1 Force norm =             0.000542 RMSD =   0.00000057
  Iteration =      2 Force norm =             0.000542 RMSD =   0.00000000
  Iteration =      3 Force norm =             0.000389 RMSD =   0.00000009
  Iteration =      4 Force norm =             0.000320 RMSD =   0.00000030
  Iteration =      5 Force norm =             0.000259 RMSD =   0.00000030
  Iteration =      6 Force norm =             0.000312 RMSD =   0.00000061
  Iteration =      7 Force norm =             0.000176 RMSD =   0.00000011
  Iteration =      8 Force norm =             0.000042 RMSD =   0.00000005

  **** Optimisation achieved ****

  Step:     64 : Elow =  -442.15772 Ehigh =  -442.15772 MaxD =     0.00104

  Iteration =      0 Force norm =             0.000042 RMSD =   0.00000000
  Iteration =      1 Force norm =             0.000076 RMSD =   0.00000000

  **** Optimisation achieved ****

  Step:     65 : Elow =  -442.15772 Ehigh =  -442.15767 MaxD =     0.00094

  Iteration =      0 Force norm =             0.000065 RMSD =   0.00000000
  Iteration =      1 Force norm =             0.000320 RMSD =   0.00000000
  Iteration =      2 Force norm =             0.000374 RMSD =   0.00000034
  Iteration =      3 Force norm =             0.000254 RMSD =   0.00000087
  Iteration =      4 Force norm =             0.000139 RMSD =   0.00000018
  Iteration =      5 Force norm =             0.000063 RMSD =   0.00000005

  **** Optimisation achieved ****

  Step:     66 : Elow =  -442.15767 Ehigh =  -442.15764 MaxD =     0.00075

  Iteration =      0 Force norm =             0.000076 RMSD =   0.00000000
  Iteration =      1 Force norm =             0.000287 RMSD =   0.00000000
  Iteration =      2 Force norm =             0.000351 RMSD =   0.00000042
  Iteration =      3 Force norm =             0.000463 RMSD =   0.00000089
  Iteration =      4 Force norm =             0.000120 RMSD =   0.00000017
  Iteration =      5 Force norm =             0.000120 RMSD =   0.00000000
  Iteration =      6 Force norm =             0.000081 RMSD =   0.00000002

  **** Optimisation achieved ****

  Step:     67 : Elow =  -442.15764 Ehigh =  -442.15763 MaxD =     0.00060

  Iteration =      0 Force norm =             0.000063 RMSD =   0.00000000
  Iteration =      1 Force norm =             0.000207 RMSD =   0.00000000
  Iteration =      2 Force norm =             0.000252 RMSD =   0.00000053
  Iteration =      3 Force norm =             0.000156 RMSD =   0.00000031
  Iteration =      4 Force norm =             0.000060 RMSD =   0.00000014

  **** Optimisation achieved ****

  Step:     68 : Elow =  -442.15763 Ehigh =  -442.15761 MaxD =     0.00048

  Iteration =      0 Force norm =             0.000081 RMSD =   0.00000000
  Iteration =      1 Force norm =             0.000183 RMSD =   0.00000000
  Iteration =      2 Force norm =             0.000190 RMSD =   0.00000031
  Iteration =      3 Force norm =             0.000347 RMSD =   0.00000056
  Iteration =      4 Force norm =             0.000124 RMSD =   0.00000013
  Iteration =      5 Force norm =             0.000124 RMSD =   0.00000000
  Iteration =      6 Force norm =             0.000081 RMSD =   0.00000001

  **** Optimisation achieved ****

  Step:     69 : Elow =  -442.15761 Ehigh =  -442.15761 MaxD =     0.00039

  Iteration =      0 Force norm =             0.000060 RMSD =   0.00000000
  Iteration =      1 Force norm =             0.000130 RMSD =   0.00000000
  Iteration =      2 Force norm =             0.000132 RMSD =   0.00000010
  Iteration =      3 Force norm =             0.000125 RMSD =   0.00000028
  Iteration =      4 Force norm =             0.000121 RMSD =   0.00000011
  Iteration =      5 Force norm =             0.000033 RMSD =   0.00000010

  **** Optimisation achieved ****

  Step:     70 : Elow =  -442.15761 Ehigh =  -442.15760 MaxD =     0.00031

  Iteration =      0 Force norm =             0.000081 RMSD =   0.00000000
  Iteration =      1 Force norm =             0.000122 RMSD =   0.00000000
  Iteration =      2 Force norm =             0.000104 RMSD =   0.00000004
  Iteration =      3 Force norm =             0.000120 RMSD =   0.00000015
  Iteration =      4 Force norm =             0.000126 RMSD =   0.00000022
  Iteration =      5 Force norm =             0.000046 RMSD =   0.00000005

  **** Optimisation achieved ****

  Step:     71 : Elow =  -442.15760 Ehigh =  -442.15760 MaxD =     0.00025

  Iteration =      0 Force norm =             0.000033 RMSD =   0.00000000
  Iteration =      1 Force norm =             0.000075 RMSD =   0.00000000

  **** Optimisation achieved ****

  Step:     72 : Elow =  -442.15760 Ehigh =  -442.15760 MaxD =     0.00020

  Iteration =      0 Force norm =             0.000046 RMSD =   0.00000000
  Iteration =      1 Force norm =             0.000038 RMSD =   0.00000000

  **** Optimisation achieved ****

  Step:     73 : Elow =  -442.15760 Ehigh =  -442.15760 MaxD =     0.00016

  Iteration =      0 Force norm =             0.000075 RMSD =   0.00000000
  Iteration =      1 Force norm =             0.000063 RMSD =   0.00000000

  **** Optimisation achieved ****

  Step:     74 : Elow =  -442.15760 Ehigh =  -442.15759 MaxD =     0.00013

  Iteration =      0 Force norm =             0.000038 RMSD =   0.00000000
  Iteration =      1 Force norm =             0.000037 RMSD =   0.00000000

  **** Optimisation achieved ****

  Step:     75 : Elow =  -442.15759 Ehigh =  -442.15759 MaxD =     0.00010

  Iteration =      0 Force norm =             0.000063 RMSD =   0.00000000
  Iteration =      1 Force norm =             0.000055 RMSD =   0.00000000

  **** Optimisation achieved ****


--------------------------------------------------------------------------------
  Energy of configurations :
--------------------------------------------------------------------------------
  Bound 1                      -442.15759326 eV
  Bound 2                      -442.15759391 eV
--------------------------------------------------------------------------------

--------------------------------------------------------------------------------
                      Coordinates                        Gradients
********************************************************************************
 Bound number =    1
********************************************************************************
 Cell :    5.94411    5.94411  90.0000
      :    0.00000    0.00000   0.0000
--------------------------------------------------------------------------------
 Coordinates : 
--------------------------------------------------------------------------------
     1     0.000000     0.000000     0.000000    0.00000   0.00000   0.00000
     2     0.201182     0.201119     0.000000   -0.00019  -0.00017   0.00000
     3     0.510532     0.088397     0.000000   -0.00012  -0.00020   0.00000
     4     0.744328     0.062513     0.000000   -0.00005  -0.00025   0.00000
     5     0.544032     0.325288     0.000000   -0.00037  -0.00034   0.00000
     6     0.088391     0.510554     0.000000   -0.00019  -0.00012   0.00000
     7     0.325277     0.544026     0.000000   -0.00034  -0.00038   0.00000
     8     0.062511     0.744337     0.000000   -0.00025  -0.00005   0.00000
     9     0.572837     0.572840     0.000000   -0.00035  -0.00035   0.00000
    10     0.829783     0.516834     0.000000   -0.00025  -0.00017   0.00000
    11     0.516832     0.829774     0.000000   -0.00017  -0.00025   0.00000
********************************************************************************
 Bound number =    2
********************************************************************************
 Cell :    5.94411    5.94411  90.0000
      :    0.00000    0.00000   0.0000
--------------------------------------------------------------------------------
 Coordinates : 
--------------------------------------------------------------------------------
     1     0.000000     0.000000     0.000000    0.00000   0.00000   0.00000
     2     0.201102     0.201200     0.000000   -0.00007  -0.00006   0.00000
     3     0.510560     0.088389     0.000000   -0.00020  -0.00012   0.00000
     4     0.744339     0.062511     0.000000   -0.00003  -0.00007   0.00000
     5     0.544024     0.325275     0.000000   -0.00043   0.00002   0.00000
     6     0.088400     0.510526     0.000000   -0.00012  -0.00020   0.00000
     7     0.325292     0.544034     0.000000    0.00002  -0.00043   0.00000
     8     0.062514     0.744326     0.000000   -0.00007  -0.00003   0.00000
     9     0.572841     0.572837     0.000000   -0.00009  -0.00010   0.00000
    10     0.829772     0.516832     0.000000   -0.00007  -0.00014   0.00000
    11     0.516835     0.829785     0.000000   -0.00013  -0.00007   0.00000
--------------------------------------------------------------------------------

  Replica coordinates in GULP input format : 

#-------------------------------------------------------------------------------
#  Bound number =    1
#-------------------------------------------------------------------------------
scell
   5.94411    5.94411  90.0000
sfractional
Al    core     0.000000     0.000000     0.000000   2.00000 1.0000 0.000000
O     core     0.201182     0.201119     0.000000  -2.00000 1.0000 0.000000
Mg    core     0.510532     0.088397     0.000000   4.00000 1.0000 0.000000
O     core     0.744328     0.062513     0.000000  -2.00000 1.0000 0.000000
O     core     0.544032     0.325288     0.000000  -2.00000 1.0000 0.000000
Mg    core     0.088391     0.510554     0.000000   4.00000 1.0000 0.000000
O     core     0.325277     0.544026     0.000000  -2.00000 1.0000 0.000000
O     core     0.062511     0.744337     0.000000  -2.00000 1.0000 0.000000
Mg    core     0.572837     0.572840     0.000000   4.00000 1.0000 0.000000
O     core     0.829783     0.516834     0.000000  -2.00000 1.0000 0.000000
O     core     0.516832     0.829774     0.000000  -2.00000 1.0000 0.000000
#-------------------------------------------------------------------------------
#  Bound number =    2
#-------------------------------------------------------------------------------
scell
   5.94411    5.94411  90.0000
sfractional
Al    core     0.000000     0.000000     0.000000   2.00000 1.0000 0.000000
O     core     0.201102     0.201200     0.000000  -2.00000 1.0000 0.000000
Mg    core     0.510560     0.088389     0.000000   4.00000 1.0000 0.000000
O     core     0.744339     0.062511     0.000000  -2.00000 1.0000 0.000000
O     core     0.544024     0.325275     0.000000  -2.00000 1.0000 0.000000
Mg    core     0.088400     0.510526     0.000000   4.00000 1.0000 0.000000
O     core     0.325292     0.544034     0.000000  -2.00000 1.0000 0.000000
O     core     0.062514     0.744326     0.000000  -2.00000 1.0000 0.000000
Mg    core     0.572841     0.572837     0.000000   4.00000 1.0000 0.000000
O     core     0.829772     0.516832     0.000000  -2.00000 1.0000 0.000000
O     core     0.516835     0.829785     0.000000  -2.00000 1.0000 0.000000
#-------------------------------------------------------------------------------


  Peak dynamic memory used =       1.81 MB 


  Timing analysis for GULP :

--------------------------------------------------------------------------------
  Task / Subroutine                                          Time (Seconds)
--------------------------------------------------------------------------------
  Calculation of reciprocal space energy and derivatives          0.3978
  Calculation of real space energy and derivatives                0.7693
  Global summation overhead                                       0.0002
--------------------------------------------------------------------------------
  Total CPU time                                                  1.1781
--------------------------------------------------------------------------------


  Dump file written as example79.res


  Job Finished at 12:16.01 25th August     2022                               

