********************************************************************************
*                       GENERAL UTILITY LATTICE PROGRAM                        *
*                                 Julian Gale                                  *
*                       Curtin Institute for Computation                       *
*                    School of Molecular and Life Sciences                     *
*                    Curtin University, Western Australia                      *
********************************************************************************
* Version = 6.1.0 * Last modified =  25th August 2022                          *
********************************************************************************
*  optimise     - perform optimisation run                                     *
*  conv         - constant volume calculation                                  *
*  hessian      - output inverse Hessian matrix when calculated exactly        *
********************************************************************************

  Job Started  at 12:15.17 25th August     2022                               

  Number of CPUs =     1


  Total number of configurations input =      1

********************************************************************************
*  Input for Configuration =   1                                               *
********************************************************************************

  Formula = SiO5                                                        

  Number of irreducible atoms/shells =       6


  Total number atoms/shells =       6

  Dimensionality = 0               :  Cluster


  Charge on cluster =   0.000000


  Initial cluster dipoles : x =      0.000000 e.Angs
                            y =      0.000000 e.Angs
                            z =      0.000000 e.Angs

  Temperature of configuration =   0.00     K 

  Symmetry number =      1

  Cartesian coordinates of cluster :

--------------------------------------------------------------------------------
   No.  Atomic       x           y          z         Charge      Occupancy
        Label      (Angs)      (Angs)     (Angs)        (e)         (Frac)  
--------------------------------------------------------------------------------
      1 Si1   c      0.0000      0.0000      0.0000     0.00000    1.000000    
      2 O1    c     -2.5000 *    0.0000 *    0.0000 *   0.00000    1.000000    
      3 O1    c      2.7000 *    0.0000 *    0.0000 *   0.00000    1.000000    
      4 O1    c      0.0000 *    2.5000 *    0.0000 *   0.00000    1.000000    
      5 O1    c      0.0000 *   -2.6000 *    0.0000 *   0.00000    1.000000    
      6 O1    c      0.0000 *    0.0000 *    2.5000 *   0.00000    1.000000    
--------------------------------------------------------------------------------



********************************************************************************
*  General input information                                                   *
********************************************************************************

  Species output for all configurations : 

--------------------------------------------------------------------------------
  Species    Type    Atomic    Atomic    Charge       Radii (Angs)     Library
                     Number     Mass       (e)     Cova   Ionic  VDW   Symbol
--------------------------------------------------------------------------------
    O1       Core        8      16.00   0.000000   0.730  0.000  1.360 O        
    Si1      Core       14      28.09   0.000000   1.200  0.000  2.100 Si       
--------------------------------------------------------------------------------


  Accuracy factor for short range sums = 12.000

  Electrostatics method = Direct Coulomb

  Analytic derivatives to be used

  Time limit = Infinity

  Bond-order one-body potentials :

--------------------------------------------------------------------------------
Atom  Type            AlphaA               AlphaB          nA       nB          
--------------------------------------------------------------------------------
O1   c             0.0000000000         1.0027000000     3.9864   3.9864
--------------------------------------------------------------------------------
Si1  c             0.0000000000         0.0000010999     0.7877   0.7877
--------------------------------------------------------------------------------

  Bond-order two-body potentials :

--------------------------------------------------------------------------------
Atom  Types                 A                 B                  Cutoffs(Ang)   
  1     2                 ZetaA             ZetaB                Taper    Max   
--------------------------------------------------------------------------------
O1   c O1   c          3331.0600000000       260.4770000000     2.2607   3.3129
                          3.783360000          3.344020000    
--------------------------------------------------------------------------------
Si1  c Si1  c          1830.7900000000       471.1950000000     2.4481   3.0835
                          2.623920000          1.888910000    
--------------------------------------------------------------------------------
O1   c Si1  c          2586.8593540000       350.2591000000     2.3525   3.1962
                          3.943670000          2.315955000    
--------------------------------------------------------------------------------

  Bond-order repulsive :

--------------------------------------------------------------------------------
Atom    Type         Omega            Lambda          M                           
 1/2     1/2                                                                    
--------------------------------------------------------------------------------
O1   c             1.00000000       3.34402000        1
O1   c
--------------------------------------------------------------------------------
Si1  c             1.00000000       1.88891000        3
Si1  c
--------------------------------------------------------------------------------
O1   c             1.00000000       2.31595500        1
Si1  c
--------------------------------------------------------------------------------
Si1  c             1.00000000       2.31595500        3
O1   c
--------------------------------------------------------------------------------

  Bond-order attractive :

--------------------------------------------------------------------------------
Atom    Type         Omega            Lambda          M                           
 1/2     1/2           C              D                H                        
--------------------------------------------------------------------------------
O1   c  Theta       1.00000000       3.34402000       1
O1   c              0.00000000       1.00000000      -0.52909000
--------------------------------------------------------------------------------
Si1  c  Theta       1.00000000       1.88891000       3
Si1  c         100390.00000000      16.21701000      -0.59784000
--------------------------------------------------------------------------------
O1   c  Theta       1.00000000       2.31595500       1
Si1  c              0.00000000       1.00000000      -0.52909000
--------------------------------------------------------------------------------
Si1  c  Theta       1.00000000       2.31595500       3
O1   c         100390.00000000      16.21701000      -0.59784000
--------------------------------------------------------------------------------

  Bond-order coordination :

--------------------------------------------------------------------------------
Atom              C1              C2              Z0              E0            
--------------------------------------------------------------------------------
Si1  c         -0.12380000       0.28520000       3.70000000    -103.73300000
--------------------------------------------------------------------------------
O1   c         -0.00380000       0.13930000       2.80000000    -432.15800000
--------------------------------------------------------------------------------

********************************************************************************
*  Output for configuration   1                                                *
********************************************************************************


  Number of neighbours for atoms :

  i  Nat   N
   1  14      5
   2   8      1
   3   8      1
   4   8      1
   5   8      1
   6   8      1

  Neighbours of atoms :

   1    2    3    4    5    6
   2    1
   3    1
   4    1
   5    1
   6    1

  Components of energy : 

--------------------------------------------------------------------------------
  Interatomic potentials     =           0.00000000 eV    
  Bond-order potentials      =       -2267.13825152 eV    
  Monopole - monopole (real) =           0.00000000 eV    
--------------------------------------------------------------------------------
  Total lattice energy       =       -2267.13825152 eV    
--------------------------------------------------------------------------------
  Total lattice energy       =         -218744.1849 kJ/mol
--------------------------------------------------------------------------------


  Number of variables =       15

  Maximum number of calculations  =             1
  Maximum Hessian update interval =            10
  Maximum step size               =   1.000000000
  Maximum parameter tolerance     =   0.000010000
  Maximum function  tolerance     =   0.000010000
  Maximum gradient  tolerance     =   0.001000000
  Maximum gradient  component     =   0.010000000

  Symmetry not applied to optimisation

  Newton-Raphson optimiser to be used

  BFGS hessian update to be used

  Lower half triangular hessian to be used

  Start of cluster optimisation :


  Number of neighbours for atoms :

  i  Nat   N
   1  14      5
   2   8      1
   3   8      1
   4   8      1
   5   8      1
   6   8      1

  Neighbours of atoms :

   1    2    3    4    5    6
   2    1
   3    1
   4    1
   5    1
   6    1
  Cycle:      0 Energy:     -2267.138252  Gnorm:      0.338069  CPU:    0.015

 Hessian Matrix :

       -1.7015
        0.0194      1.0154
        0.0922     -0.0005      0.9956
       -0.0626      0.0040      0.0096     -4.9954
       -0.0003     -0.0085      0.0000     -0.0205      0.6418
       -0.0027      0.0000     -0.0066     -0.0769     -0.0003      0.6328
       -0.0821     -0.0223      0.0036     -0.0894      0.0125     -0.0015      1.0119
       -0.0941     -0.0845      0.0053      0.1678     -0.0407      0.0043      0.0469     -1.7214
       -0.0054     -0.0037      0.0114      0.0138     -0.0022      0.0054      0.0014     -0.0945      0.9972
       -0.0632      0.0175      0.0029     -0.0625     -0.0095     -0.0011     -0.0115     -0.0003      0.0000      0.8501
        0.1411     -0.0869     -0.0096     -0.1286     -0.0457     -0.0046      0.0038     -0.0577     -0.0069     -0.0372
     -4.0007
       -0.0046      0.0024      0.0081      0.0091      0.0015      0.0038      0.0000      0.0032     -0.0099      0.0008
      0.0853      0.8397
       -0.0810      0.0005     -0.0186     -0.0857     -0.0003      0.0107      0.0090     -0.0007      0.0012      0.0063
      0.0046      0.0010      1.0072
       -0.0006      0.0078     -0.0005      0.0044      0.0033     -0.0003      0.0014     -0.0836      0.0194     -0.0008
     -0.0852     -0.0154      0.0002      1.0123
       -0.0890      0.0007     -0.0768      0.1517      0.0006     -0.0364     -0.0008      0.0892     -0.0770     -0.0008
     -0.1322     -0.0592      0.0441     -0.0188     -1.7389

 Inverse Hessian Matrix :

   -0.58425951
    0.01174360  0.98003025
    0.05538817 -0.00059862  0.99657158
    0.01224885 -0.00071415 -0.00086743 -0.20075354
    0.00101499  0.00788142 -0.00000945 -0.00711594  1.55503764
    0.00149588  0.00010257  0.00777646 -0.02510155 -0.00007524  1.57583870
   -0.04783764  0.02442097  0.00074581 -0.01576099 -0.01762201  0.00034637  0.98265586
    0.03365192 -0.04703297 -0.00157014 -0.02175953 -0.03737868  0.00019237  0.02710764 -0.57774893
    0.00157582 -0.00068736 -0.01491288 -0.00049052 -0.00001716 -0.01102922  0.00130151 -0.05599685  0.99474781
   -0.04423703 -0.01981092  0.00047867 -0.01372375  0.01572078  0.00045990  0.00790606  0.00211708  0.00011212  1.17225043
   -0.02260720 -0.01974668  0.00091002  0.00808730 -0.01709325 -0.00000755 -0.00111986  0.01373005  0.00144903 -0.01185473
 -0.25020390
    0.00055884 -0.00084280 -0.01285962  0.00025686 -0.00103988 -0.00944245  0.00002284 -0.00225540  0.00831099  0.00016887
  0.02636661  1.18580767
   -0.04548262  0.00038245  0.02475541 -0.01481901  0.00009075 -0.01713107 -0.01410639  0.00157703  0.00070874 -0.01208678
 -0.00079661  0.00048206  0.98770128
    0.00097367 -0.01322694 -0.00031540 -0.00054867 -0.00953710 -0.00004240  0.00069607 -0.04554415 -0.02434940  0.00023944
 -0.01900268  0.01908278  0.00041047  0.98313973
    0.03074176 -0.00095010 -0.04550823 -0.01965059 -0.00057720 -0.03518724  0.00161536 -0.03118958 -0.04628404  0.00118543
  0.02076034 -0.04227878  0.02544132 -0.01119057 -0.57453547


  ** Hessian calculated **
  ** Cosine =  -0.947230

  Number of neighbours for atoms :

  i  Nat   N
   1  14      5
   2   8      1
   3   8      1
   4   8      1
   5   8      1
   6   8      1

  Neighbours of atoms :

   1    2    3    4    5    6
   2    1
   3    1
   4    1
   5    1
   6    1

  Number of neighbours for atoms :

  i  Nat   N
   1  14      5
   2   8      4
   3   8      1
   4   8      3
   5   8      3
   6   8      4

  Neighbours of atoms :

   1    2    3    4    5    6
   2    1    4    5    6
   3    1
   4    1    2    6
   5    1    2    6
   6    1    2    4    5

  Number of neighbours for atoms :

  i  Nat   N
   1  14      5
   2   8      4
   3   8      3
   4   8      4
   5   8      3
   6   8      5

  Neighbours of atoms :

   1    2    3    4    5    6
   2    1    4    5    6
   3    1    4    6
   4    1    2    3    6
   5    1    2    6
   6    1    2    3    4    5

  Number of neighbours for atoms :

  i  Nat   N
   1  14      5
   2   8      4
   3   8      4
   4   8      4
   5   8      4
   6   8      5

  Neighbours of atoms :

   1    2    3    4    5    6
   2    1    4    5    6
   3    1    4    5    6
   4    1    2    3    6
   5    1    2    3    6
   6    1    2    3    4    5

  Number of neighbours for atoms :

  i  Nat   N
   1  14      5
   2   8      4
   3   8      3
   4   8      4
   5   8      3
   6   8      5

  Neighbours of atoms :

   1    2    3    4    5    6
   2    1    4    5    6
   3    1    4    6
   4    1    2    3    6
   5    1    2    6
   6    1    2    3    4    5

  Number of neighbours for atoms :

  i  Nat   N
   1  14      5
   2   8      4
   3   8      3
   4   8      4
   5   8      3
   6   8      5

  Neighbours of atoms :

   1    2    3    4    5    6
   2    1    4    5    6
   3    1    4    6
   4    1    2    3    6
   5    1    2    6
   6    1    2    3    4    5
  Cycle:      1 Energy:     -2273.881716  Gnorm:      0.314222  CPU:    0.015


  **** Maximum number of function calls has been reached ****


  Final energy =   -2273.88171576 eV      
  Final Gnorm  =       0.31422181

  Components of energy : 

--------------------------------------------------------------------------------
  Interatomic potentials     =           0.00000000 eV    
  Bond-order potentials      =       -2273.88171576 eV    
  Monopole - monopole (real) =           0.00000000 eV    
--------------------------------------------------------------------------------
  Total lattice energy       =       -2273.88171576 eV    
--------------------------------------------------------------------------------
  Total lattice energy       =         -219394.8261 kJ/mol
--------------------------------------------------------------------------------

  Final cartesian coordinates of atoms :

--------------------------------------------------------------------------------
   No.  Atomic        x           y          z          Radius
        Label       (Angs)      (Angs)     (Angs)       (Angs) 
--------------------------------------------------------------------------------
     1  Si1   c     0.000000    0.000000    0.000000    0.000000
     2  O1    c    -1.738505    0.004402    0.018605    0.000000
     3  O1    c     2.520973    0.003588    0.014450    0.000000
     4  O1    c    -0.008784    1.744318    0.018760    0.000000
     5  O1    c    -0.007811   -2.314392    0.016377    0.000000
     6  O1    c    -0.008588    0.004351    1.760362    0.000000
--------------------------------------------------------------------------------


  Final Cartesian derivatives :

--------------------------------------------------------------------------------
   No.  Atomic          x             y             z           Radius
        Label       (eV/Angs)     (eV/Angs)     (eV/Angs)      (eV/Angs)
--------------------------------------------------------------------------------
      1 Si1   c       0.000000      0.000000      0.000000      0.000000
      2 O1    c      -0.255844      1.062487      1.331868      0.000000
      3 O1    c       1.911547      0.040689      0.049314      0.000000
      4 O1    c      -1.257768      0.636375      1.304544      0.000000
      5 O1    c      -0.197724     -2.958275      0.196040      0.000000
      6 O1    c      -1.252921      1.049088      0.633280      0.000000
--------------------------------------------------------------------------------
  Maximum abs         1.911547      2.958275      1.331868      0.000000
--------------------------------------------------------------------------------


  Time to end of optimisation =       0.0154 seconds


  Peak dynamic memory used =       1.81 MB 


  Timing analysis for GULP :

--------------------------------------------------------------------------------
  Task / Subroutine                                          Time (Seconds)
--------------------------------------------------------------------------------
  Calculation of Bond Order energy and derivatives                0.0002
--------------------------------------------------------------------------------
  Total CPU time                                                  0.0154
--------------------------------------------------------------------------------


  Job Finished at 12:15.17 25th August     2022                               

