********************************************************************************
*                       GENERAL UTILITY LATTICE PROGRAM                        *
*                                 Julian Gale                                  *
*                       Curtin Institute for Computation                       *
*                    School of Molecular and Life Sciences                     *
*                    Curtin University, Western Australia                      *
********************************************************************************
* Version = 6.1.0 * Last modified =  25th August 2022                          *
********************************************************************************
*  optimise     - perform optimisation run                                     *
*  conp         - constant pressure calculation                                *
*  gfnff        - use the GFNFF of Spicher and Grimme                          *
*  phonon       - calculate phonons for final geometry                         *
*  nomodcoord   - do not mod input coordinates                                 *
*  compare      - compare initial and final structures                         *
********************************************************************************

  Job Started  at 12:16.01 25th August     2022                               

  Number of CPUs =     1


  Total number of configurations input =      1

********************************************************************************
*  Input for Configuration =   1                                               *
********************************************************************************

  Formula = C2                                                          

  Number of irreducible atoms/shells =       2


  Total number atoms/shells =       2

  Dimensionality = 2               :  Surface



  Surface Cartesian vectors (Angstroms) :

        2.461000    0.000000    0.000000
       -1.230500    2.131289    0.000000

  Surface cell parameters (Angstroms/Degrees):

  a =       2.4610    alpha = 120.0000
  b =       2.4610

  Initial surface area   =      5.245102 Angs**2

  Initial surface dipole =      0.000000 e.Angs

  Temperature of configuration =   0.00     K 

  Mixed fractional/Cartesian coordinates of surface :

--------------------------------------------------------------------------------
   No.  Atomic       x           y          z         Charge      Occupancy
        Label      (Frac)      (Frac)     (Angs)        (e)         (Frac)  
--------------------------------------------------------------------------------
      1 C     c    1.000000   -0.000000      3.3540     0.00000    1.000000    
      2 C     c    0.666667 *  0.333333 *    3.3540 *   0.00000    1.000000    
--------------------------------------------------------------------------------


  Brillouin zone sampling points :

--------------------------------------------------------------------------------
  Point number          x          y          z            Weight
--------------------------------------------------------------------------------
        1           0.000000   0.000000   0.000000     1.00000000
--------------------------------------------------------------------------------


********************************************************************************
*  General input information                                                   *
********************************************************************************

  Species output for all configurations : 

--------------------------------------------------------------------------------
  Species    Type    Atomic    Atomic    Charge       Radii (Angs)     Library
                     Number     Mass       (e)     Cova   Ionic  VDW   Symbol
--------------------------------------------------------------------------------
    C        Core        6      12.01   0.000000   0.770  0.000  1.530          
--------------------------------------------------------------------------------


  Lattice summation method               =    Ewald          (3-D)
                                         =    Parry          (2-D)
                                         =    Saunders et al (1-D)
  Accuracy factor for lattice sums       =   12.000


  Analytic derivatives to be used

  Time limit = Infinity

  Maximum range for interatomic potentials =    100000.000000 Angstroms

  pGFNFF forcefield to be used

  pGFNFF parameter charges will use new PBC-consistent topology 
  pGFNFF maximum number of shells for topology - loop 0   =    2
  pGFNFF maximum number of shells for topology - loop > 0 =    4
  pGFNFF fragments to be set based on original neighbour list
  pGFNFF topological large distance = 10**12 
  pGFNFF topological distances scaled by =  1.17500
  pGFNFF topological distance  cutoff    = 12.00000 a.u.
  pGFNFF minimum allowed charge in topology set =      -2.0000
  pGFNFF dispersion-coordination number tolerance =    10.0000
  pGFNFF high coordination numbers will NOT be trapped
  pGFNFF pi biradicals modified based on charge of atoms
  pGFNFF accuracy       =     0.100000
  pGFNFF accuracy_disp  =     0.100000
  pGFNFF accuracy_rep   =     0.100000
  pGFNFF accuracy_cn    =     0.100000
  pGFNFF accuracy_hb1   =     0.100000
  pGFNFF accuracy_hb2   =     0.100000
  pGFNFF taper          =     0.950000
  pGFNFF temperature 1  =  4000.000000 K
  pGFNFF temperature 2  =   300.000000 K
  pGFNFF kspace         =     0.010000 1/Ang
  pGFNFF ATM dispersion =   damped 

********************************************************************************
*  Output for configuration   1                                                *
********************************************************************************


  Components of energy : 

--------------------------------------------------------------------------------
  Interatomic potentials     =           0.00000000 eV    
  GFNFF force field          =         -16.52391744 eV    
  Monopole - monopole (real) =           0.00000000 eV    
  Monopole - monopole (recip)=           0.00000000 eV    
  Monopole - monopole (total)=           0.00000000 eV    
--------------------------------------------------------------------------------
  Total lattice energy       =         -16.52391744 eV    
--------------------------------------------------------------------------------
  Total lattice energy       =           -1594.3054 kJ/(mole unit cells)
--------------------------------------------------------------------------------


  Number of variables =        6

  Maximum number of calculations  =          1000
  Maximum Hessian update interval =            10
  Maximum step size               =   1.000000000
  Maximum parameter tolerance     =   0.000010000
  Maximum function  tolerance     =   0.000010000
  Maximum gradient  tolerance     =   0.001000000
  Maximum gradient  component     =   0.010000000

  Symmetry not applied to optimisation

  Cell parameters to be optimised using strains

  Newton-Raphson optimiser to be used

  BFGS hessian update to be used

  Lower half triangular hessian to be used

  Start of surface optimisation :

  Cycle:      0 Energy:       -16.523917  Gnorm:      0.023154  CPU:    0.234
  ** Hessian calculated **
  Cycle:      1 Energy:       -16.523994  Gnorm:      0.000037  CPU:    0.234


  **** Optimisation achieved ****


  Final energy =     -16.52399378 eV      
  Final Gnorm  =       0.00000008

  Components of energy : 

--------------------------------------------------------------------------------
  Interatomic potentials     =           0.00000000 eV    
  GFNFF force field          =         -16.52399378 eV    
  Monopole - monopole (real) =           0.00000000 eV    
  Monopole - monopole (recip)=          -0.00000000 eV    
  Monopole - monopole (total)=          -0.00000000 eV    
--------------------------------------------------------------------------------
  Total lattice energy       =         -16.52399378 eV    
--------------------------------------------------------------------------------
  Total lattice energy       =           -1594.3128 kJ/(mole unit cells)
--------------------------------------------------------------------------------

  Final fractional/Cartesian coordinates of atoms :

--------------------------------------------------------------------------------
   No.  Atomic        x           y          z          Radius
        Label       (Frac)      (Frac)     (Angs)       (Angs) 
--------------------------------------------------------------------------------
     1  C     c     1.000000   -0.000000    3.354000    0.000000
     2  C     c     0.666667    0.333333    3.354000    0.000000
--------------------------------------------------------------------------------

  Final Cartesian surface vectors (Angstroms) :

        2.459090    0.000000    0.000000
       -1.229544    2.129634    0.000000


  Final surface cell parameters and derivatives :

--------------------------------------------------------------------------------
       a            2.459090 Angstrom     dE/de1(xx)     0.000000 eV/strain
       b            2.459089 Angstrom     dE/de2(yy)     0.000000 eV/strain
       alpha      119.999979 Degrees      dE/de3(xy)    -0.000000 eV/strain
--------------------------------------------------------------------------------

  Surface cell area =      5.236961 Angs**2

  Final internal/Cartesian derivatives :

--------------------------------------------------------------------------------
   No.  Atomic          a             b             z           Radius
        Label          (eV)          (eV)       (eV/Angs)      (eV/Angs)
--------------------------------------------------------------------------------
      1 C     c       0.000000      0.000000      0.000000      0.000000
      2 C     c      -0.000000      0.000000      0.000000      0.000000
--------------------------------------------------------------------------------
  Maximum abs         0.000000      0.000000      0.000000      0.000000
--------------------------------------------------------------------------------


  Comparison of initial and final structures : 

--------------------------------------------------------------------------------
  Parameter   Initial value   Final value   Difference    Units      Percent
--------------------------------------------------------------------------------
    Area           5.245102      5.236961    -0.008140    Angs**2     -0.16
    a              2.461000      2.459090    -0.001910    Angstroms   -0.08
    b              2.461000      2.459089    -0.001911    Angstroms   -0.08
    c            120.000000    119.999979    -0.000021    Degrees     -0.00
      1 x          1.000000      1.000000     0.000000    Fractional   0.00
      1 y         -0.000000     -0.000000     0.000000    Fractional   0.00
      1 z          3.354000      3.354000     0.000000    Cartesian    0.00
      2 x          0.666667      0.666667     0.000000    Fractional   0.00
      2 y          0.333333      0.333333     0.000000    Fractional   0.00
      2 z          3.354000      3.354000     0.000000    Cartesian    0.00
--------------------------------------------------------------------------------


  Born effective charge tensors : 

-------------------------------------------------------------------------------
  Atom             x           y             z
-------------------------------------------------------------------------------
    1 C     x      -0.0000      0.0000      0.0000
            y       0.0000     -0.0000      0.0000
            z       0.0000      0.0000     -0.0000
-------------------------------------------------------------------------------
    2 C     x       0.0000      0.0000      0.0000
            y       0.0000      0.0000      0.0000
            z       0.0000      0.0000      0.0000
-------------------------------------------------------------------------------



  Phonon Calculation : 

  Number of k points for this configuration =        1

--------------------------------------------------------------------------------
  K point      1 =   0.000000  0.000000  0.000000  Weight =    1.000
--------------------------------------------------------------------------------

  Frequencies (cm-1) [NB: Negative implies an imaginary mode]:

    0.00    0.00    0.00  844.66 1668.00 1668.00


--------------------------------------------------------------------------------
  Phonon properties (per mole of unit cells): Temperature =      0.000 K
--------------------------------------------------------------------------------
  Zero point energy             =        0.259170 eV
--------------------------------------------------------------------------------

  Time to end of optimisation =       0.2359 seconds


  Peak dynamic memory used =       1.86 MB 


  Timing analysis for GULP :

--------------------------------------------------------------------------------
  Task / Subroutine                                          Time (Seconds)
--------------------------------------------------------------------------------
  Generation of GFNFF parameters                                  0.2301
  Calculation of GFNFF energy and derivatives                     0.0028
  Calculation of phonons                                          0.0008
  Calculation of matrix diagonalisation                           0.0003
  Electronegativity equalisation                                  0.0003
--------------------------------------------------------------------------------
  Total CPU time                                                  0.2359
--------------------------------------------------------------------------------


  Job Finished at 12:16.01 25th August     2022                               

