********************************************************************************
*                       GENERAL UTILITY LATTICE PROGRAM                        *
*                                 Julian Gale                                  *
*                       Curtin Institute for Computation                       *
*                    School of Molecular and Life Sciences                     *
*                    Curtin University, Western Australia                      *
********************************************************************************
* Version = 6.1.0 * Last modified =  25th August 2022                          *
********************************************************************************
*  single       - perform a single point run                                   *
*  md           - perform molecular dynamics run                               *
*  conp         - constant pressure calculation                                *
********************************************************************************

  Job Started  at 12:08.08 25th August     2022                               

  Number of CPUs =     1


  Total number of configurations input =      1

********************************************************************************
*  Input for Configuration =   1                                               *
********************************************************************************

  Formula = Si12O24                                                     

  Number of irreducible atoms/shells =      60


  Total number atoms/shells =      60

  Dimensionality = 3               :  Bulk   



  Cartesian lattice vectors (Angstroms) :

        6.771494    3.909524    4.855125
       -6.771494    3.909524    4.855125
        0.000000   -7.819048    4.855125

  Cell parameters (Angstroms/Degrees):

  a =       9.2038    alpha =  94.7377
  b =       9.2038    beta  =  94.7377
  c =       9.2038    gamma =  94.7377

  Initial cell volume =         771.187657 Angs**3

  Temperature of configuration =   300.     K 

  Pressure of configuration =         0.000 GPa 

  Fractional coordinates of asymmetric unit :

--------------------------------------------------------------------------------
   No.  Atomic       x           y          z         Charge      Occupancy
        Label      (Frac)      (Frac)     (Frac)        (e)         (Frac)  
--------------------------------------------------------------------------------
      1 Si    c    0.106332 *  0.333397 *  0.878375 *   4.00000    1.000000    
      2 Si    c    0.878375 *  0.106332 *  0.333397 *   4.00000    1.000000    
      3 Si    c    0.333397 *  0.878375 *  0.106332 *   4.00000    1.000000    
      4 Si    c    0.666603 *  0.893668 *  0.121625 *   4.00000    1.000000    
      5 Si    c    0.893668 *  0.121625 *  0.666603 *   4.00000    1.000000    
      6 Si    c    0.121625 *  0.666603 *  0.893668 *   4.00000    1.000000    
      7 Si    c    0.893668 *  0.666603 *  0.121625 *   4.00000    1.000000    
      8 Si    c    0.121625 *  0.893668 *  0.666603 *   4.00000    1.000000    
      9 Si    c    0.666603 *  0.121625 *  0.893668 *   4.00000    1.000000    
     10 Si    c    0.333397 *  0.106332 *  0.878375 *   4.00000    1.000000    
     11 Si    c    0.106332 *  0.878375 *  0.333397 *   4.00000    1.000000    
     12 Si    c    0.878375 *  0.333397 *  0.106332 *   4.00000    1.000000    
     13 O     c    0.259238 *  0.740762 *  0.000000 *   0.86902    1.000000    
     14 O     c    0.000000 *  0.259238 *  0.740762 *   0.86902    1.000000    
     15 O     c    0.740762 *  0.000000 *  0.259238 *   0.86902    1.000000    
     16 O     c    0.740762 *  0.259238 *  0.000000 *   0.86902    1.000000    
     17 O     c    0.000000 *  0.740762 *  0.259238 *   0.86902    1.000000    
     18 O     c    0.259238 *  0.000000 *  0.740762 *   0.86902    1.000000    
     19 O     c    0.150065 *  0.849935 *  0.500000 *   0.86902    1.000000    
     20 O     c    0.500000 *  0.150065 *  0.849935 *   0.86902    1.000000    
     21 O     c    0.849935 *  0.500000 *  0.150065 *   0.86902    1.000000    
     22 O     c    0.849935 *  0.150065 *  0.500000 *   0.86902    1.000000    
     23 O     c    0.500000 *  0.849935 *  0.150065 *   0.86902    1.000000    
     24 O     c    0.150065 *  0.500000 *  0.849935 *   0.86902    1.000000    
     25 O     c    0.253778 *  0.253778 *  0.897094 *   0.86902    1.000000    
     26 O     c    0.897094 *  0.253778 *  0.253778 *   0.86902    1.000000    
     27 O     c    0.253778 *  0.897094 *  0.253778 *   0.86902    1.000000    
     28 O     c    0.746222 *  0.746222 *  0.102906 *   0.86902    1.000000    
     29 O     c    0.746222 *  0.102906 *  0.746222 *   0.86902    1.000000    
     30 O     c    0.102906 *  0.746222 *  0.746222 *   0.86902    1.000000    
     31 O     c    0.026519 *  0.026519 *  0.323465 *   0.86902    1.000000    
     32 O     c    0.323465 *  0.026519 *  0.026519 *   0.86902    1.000000    
     33 O     c    0.026519 *  0.323465 *  0.026519 *   0.86902    1.000000    
     34 O     c    0.973481 *  0.973481 *  0.676535 *   0.86902    1.000000    
     35 O     c    0.973481 *  0.676535 *  0.973481 *   0.86902    1.000000    
     36 O     c    0.676535 *  0.973481 *  0.973481 *   0.86902    1.000000    
     37 O     s    0.259238 *  0.740762 *  0.000000 *  -2.86902    1.000000    
     38 O     s    0.000000 *  0.259238 *  0.740762 *  -2.86902    1.000000    
     39 O     s    0.740762 *  0.000000 *  0.259238 *  -2.86902    1.000000    
     40 O     s    0.740762 *  0.259238 *  0.000000 *  -2.86902    1.000000    
     41 O     s    0.000000 *  0.740762 *  0.259238 *  -2.86902    1.000000    
     42 O     s    0.259238 *  0.000000 *  0.740762 *  -2.86902    1.000000    
     43 O     s    0.150065 *  0.849935 *  0.500000 *  -2.86902    1.000000    
     44 O     s    0.500000 *  0.150065 *  0.849935 *  -2.86902    1.000000    
     45 O     s    0.849935 *  0.500000 *  0.150065 *  -2.86902    1.000000    
     46 O     s    0.849935 *  0.150065 *  0.500000 *  -2.86902    1.000000    
     47 O     s    0.500000 *  0.849935 *  0.150065 *  -2.86902    1.000000    
     48 O     s    0.150065 *  0.500000 *  0.849935 *  -2.86902    1.000000    
     49 O     s    0.253778 *  0.253778 *  0.897094 *  -2.86902    1.000000    
     50 O     s    0.897094 *  0.253778 *  0.253778 *  -2.86902    1.000000    
     51 O     s    0.253778 *  0.897094 *  0.253778 *  -2.86902    1.000000    
     52 O     s    0.746222 *  0.746222 *  0.102906 *  -2.86902    1.000000    
     53 O     s    0.746222 *  0.102906 *  0.746222 *  -2.86902    1.000000    
     54 O     s    0.102906 *  0.746222 *  0.746222 *  -2.86902    1.000000    
     55 O     s    0.026519 *  0.026519 *  0.323465 *  -2.86902    1.000000    
     56 O     s    0.323465 *  0.026519 *  0.026519 *  -2.86902    1.000000    
     57 O     s    0.026519 *  0.323465 *  0.026519 *  -2.86902    1.000000    
     58 O     s    0.973481 *  0.973481 *  0.676535 *  -2.86902    1.000000    
     59 O     s    0.973481 *  0.676535 *  0.973481 *  -2.86902    1.000000    
     60 O     s    0.676535 *  0.973481 *  0.973481 *  -2.86902    1.000000    
--------------------------------------------------------------------------------



********************************************************************************
*  General input information                                                   *
********************************************************************************

  Species output for all configurations : 

--------------------------------------------------------------------------------
  Species    Type    Atomic    Atomic    Charge       Radii (Angs)     Library
                     Number     Mass       (e)     Cova   Ionic  VDW   Symbol
--------------------------------------------------------------------------------
    Si       Core       14      28.09   4.000000   1.200  0.000  2.100          
    O        Core        8      14.40   0.869020   0.730  0.000  1.360          
    O        Shell       8       1.60  -2.869020   0.730  0.000  1.360          
--------------------------------------------------------------------------------


  Lattice summation method               =    Ewald          (3-D)
                                         =    Parry          (2-D)
                                         =    Saunders et al (1-D)
  Accuracy factor for lattice sums       =   12.000


  Analytic derivatives to be used

  Time limit = Infinity

  Maximum range for interatomic potentials =        12.000000 Angstroms

  Taper potentials to zero over   1.0000 Angstroms using polynomial

  General interatomic potentials :

--------------------------------------------------------------------------------
Atom  Types   Potential      Parameter       Value         Units   Cutoffs(Ang)
  1     2                                                            Min /  Max 
--------------------------------------------------------------------------------
Si   c O    s Buckingham    Buckingham A     1283.9070    eV        0.000 12.000
                            Buckingham rho  0.32052000    Ang       
                            Buckingham C     10.661580    eV*Ang^6  
--------------------------------------------------------------------------------
O    s O    s Buckingham    Buckingham A     22764.000    eV        0.000 12.000
                            Buckingham rho  0.14900000    Ang       
                            Buckingham C     27.879000    eV*Ang^6  
--------------------------------------------------------------------------------
O    c O    s Spring (c-s)  Spring k 2       74.920000    eV*Ang^-2 0.000  0.800
                            Spring k 4       0.0000000    eV*Ang^-4 
--------------------------------------------------------------------------------

  General Three-body potentials :

--------------------------------------------------------------------------------
  Atoms       Potential      Parameter       Value         Units   Cutoffs(Ang)
  1 / 2 / 3                                                          Min /  Max 
--------------------------------------------------------------------------------
Si    core    Harmonic      Three-body cnst  2.0972400    eV*rad^-2 0.000  1.900
O     shel                  Three-body angl  109.47000    degrees   0.000  1.900
O     shel                  Three-body k4    0.0000000    eV*rad^-4 0.000  3.600
                            Three-body k3    0.0000000    eV*rad^-3 
--------------------------------------------------------------------------------

********************************************************************************
*  Output for configuration   1                                                *
********************************************************************************


  Components of energy : 

--------------------------------------------------------------------------------
  Interatomic potentials     =         378.85222191 eV    
  Three-body potentials      =           0.05863266 eV    
  Monopole - monopole (real) =       -1269.81289803 eV    
  Monopole - monopole (recip)=        -633.48791574 eV    
  Monopole - monopole (total)=       -1903.30081377 eV    
--------------------------------------------------------------------------------
  Total lattice energy       =       -1524.38995920 eV    
--------------------------------------------------------------------------------
  Total lattice energy       =         -147080.3286 kJ/(mole unit cells)
--------------------------------------------------------------------------------

  Equations of motion will be integrated using the leapfrog Verlet algorithm.

  Core-shell wave numbers:

    O   :    3761.37 cm**(-1)

  Above wave numbers must be larger than the vibrational modes for this system.


********************************************************************************
*  Molecular Dynamics                                                          *
********************************************************************************

  Isothermal/baric ensemble (NPT) to be used

  Friction for temperature bath =           0.005000
  Friction for pressure    bath =           0.005000

  No. of mobile ions        =                 36

  No. of degrees of freedom =                105

  Time step                 =           0.000100 ps
  Equilibration time        =           1.000000 ps
  Production time           =           1.000000 ps
  Scaling time              =           1.000000 ps
  Scaling frequency         =           0.000100 ps
  Sampling frequency        =           0.005000 ps
  Write frequency           =           0.002000 ps
  TD-Force start time       =           0.000000 ps
  TD-Field start time       =           0.000000 ps



  Molecular dynamics equilibration :

  ** Time :            0.00500 ps :
     Properties:                   Instantaneous       Averaged
       Kinetic energy    (eV) =       1.362926          1.362926
       Potential energy  (eV) =   -1536.147517      -1536.147517
       Total energy      (eV) =   -1534.784591      -1534.784591
       Temperature       (K)  =     301.258648        301.258648
       C/S temperature   (K)  =       1.194674          1.194674
       Pressure         (GPa) =      -0.529820         -0.529820
       Cell parameter : a (A) =       9.202640          9.202640
       Cell parameter : b (A) =       9.202555          9.202555
       Cell parameter : c (A) =       9.202875          9.202875
       Cell angle : alpha (o) =      94.740138         94.740138
       Cell angle : beta  (o) =      94.741138         94.741138
       Cell angle : gamma (o) =      94.737793         94.737793
       Cell volume :   (A**3) =     770.903784        770.903784
  ** Time :            0.01000 ps :
     Properties:                   Instantaneous       Averaged
       Kinetic energy    (eV) =       1.358024          1.360475
       Potential energy  (eV) =   -1539.625478      -1537.886498
       Total energy      (eV) =   -1538.267454      -1536.526023
       Temperature       (K)  =     300.175204        300.716926
       C/S temperature   (K)  =       0.024510          0.609592
       Pressure         (GPa) =       1.411493          0.440865
       Cell parameter : a (A) =       9.202978          9.202809
       Cell parameter : b (A) =       9.202727          9.202641
       Cell parameter : c (A) =       9.203575          9.203225
       Cell angle : alpha (o) =      94.746258         94.743198
       Cell angle : beta  (o) =      94.748796         94.744967
       Cell angle : gamma (o) =      94.740129         94.738961
       Cell volume :   (A**3) =     770.985339        770.944561
  ** Time :            0.01500 ps :
     Properties:                   Instantaneous       Averaged
       Kinetic energy    (eV) =       1.355446          1.358798
       Potential energy  (eV) =   -1539.674187      -1538.482394
       Total energy      (eV) =   -1538.318742      -1537.123596
       Temperature       (K)  =     299.605294        300.346382
       C/S temperature   (K)  =       0.928195          0.715793
       Pressure         (GPa) =       3.031267          1.304180
       Cell parameter : a (A) =       9.204670          9.203429
       Cell parameter : b (A) =       9.204313          9.203198
       Cell parameter : c (A) =       9.205424          9.203958
       Cell angle : alpha (o) =      94.754530         94.746975
       Cell angle : beta  (o) =      94.757496         94.749143
       Cell angle : gamma (o) =      94.747085         94.741669
       Cell volume :   (A**3) =     771.385521        771.091548
  ** Time :            0.02000 ps :
     Properties:                   Instantaneous       Averaged
       Kinetic energy    (eV) =       1.358168          1.358641
       Potential energy  (eV) =   -1539.826589      -1538.818443
       Total energy      (eV) =   -1538.468421      -1537.459802
       Temperature       (K)  =     300.207012        300.311540
       C/S temperature   (K)  =       0.880734          0.757028
       Pressure         (GPa) =       4.124015          2.008314
       Cell parameter : a (A) =       9.207376          9.204416
       Cell parameter : b (A) =       9.207041          9.204159
       Cell parameter : c (A) =       9.208043          9.204979
       Cell angle : alpha (o) =      94.760831         94.750439
       Cell angle : beta  (o) =      94.762913         94.752586
       Cell angle : gamma (o) =      94.754766         94.744943
       Cell volume :   (A**3) =     772.036677        771.327830
  ** Time :            0.02500 ps :
     Properties:                   Instantaneous       Averaged
       Kinetic energy    (eV) =       1.348020          1.356517
       Potential energy  (eV) =   -1539.744430      -1539.003640
       Total energy      (eV) =   -1538.396410      -1537.647124
       Temperature       (K)  =     297.963970        299.842026
       C/S temperature   (K)  =       0.603888          0.726400
       Pressure         (GPa) =       4.679425          2.540879
       Cell parameter : a (A) =       9.210570          9.205647
       Cell parameter : b (A) =       9.210311          9.205389
       Cell parameter : c (A) =       9.211067          9.206197
       Cell angle : alpha (o) =      94.760437         94.752439
       Cell angle : beta  (o) =      94.761445         94.754357
       Cell angle : gamma (o) =      94.755854         94.747125
       Cell volume :   (A**3) =     772.833466        771.628957
  ** Time :            0.03000 ps :
     Properties:                   Instantaneous       Averaged
       Kinetic energy    (eV) =       1.342213          1.354133
       Potential energy  (eV) =   -1538.963285      -1538.996914
       Total energy      (eV) =   -1537.621072      -1537.642782
       Temperature       (K)  =     296.680431        299.315093
       C/S temperature   (K)  =       0.503403          0.689234
       Pressure         (GPa) =       4.944818          2.939147
       Cell parameter : a (A) =       9.213921          9.207026
       Cell parameter : b (A) =       9.213679          9.206771
       Cell parameter : c (A) =       9.214364          9.207558
       Cell angle : alpha (o) =      94.751881         94.752346
       Cell angle : beta  (o) =      94.752814         94.754100
       Cell angle : gamma (o) =      94.747079         94.747118
       Cell volume :   (A**3) =     773.706214        771.975167
  ** Time :            0.03500 ps :
     Properties:                   Instantaneous       Averaged
       Kinetic energy    (eV) =       1.350910          1.353672
       Potential energy  (eV) =   -1538.361936      -1538.906203
       Total energy      (eV) =   -1537.011026      -1537.552531
       Temperature       (K)  =     298.602794        299.213336
       C/S temperature   (K)  =       0.477143          0.658935
       Pressure         (GPa) =       4.643830          3.179813
       Cell parameter : a (A) =       9.217132          9.208469
       Cell parameter : b (A) =       9.216807          9.208205
       Cell parameter : c (A) =       9.217817          9.209023
       Cell angle : alpha (o) =      94.736601         94.750097
       Cell angle : beta  (o) =      94.739132         94.751962
       Cell angle : gamma (o) =      94.729805         94.744644
       Cell volume :   (A**3) =     774.585764        772.348109
  ** Time :            0.04000 ps :
     Properties:                   Instantaneous       Averaged
       Kinetic energy    (eV) =       1.369743          1.355681
       Potential energy  (eV) =   -1539.558771      -1538.987774
       Total energy      (eV) =   -1538.189027      -1537.632093
       Temperature       (K)  =     302.765642        299.657374
       C/S temperature   (K)  =       0.519095          0.641455
       Pressure         (GPa) =       3.721557          3.244790
       Cell parameter : a (A) =       9.219887          9.209897
       Cell parameter : b (A) =       9.219433          9.209608
       Cell parameter : c (A) =       9.220868          9.210504
       Cell angle : alpha (o) =      94.721409         94.746511
       Cell angle : beta  (o) =      94.725784         94.748690
       Cell angle : gamma (o) =      94.713637         94.740768
       Cell volume :   (A**3) =     775.349541        772.723288
  ** Time :            0.04500 ps :
     Properties:                   Instantaneous       Averaged
       Kinetic energy    (eV) =       1.360731          1.356242
       Potential energy  (eV) =   -1540.936162      -1539.204262
       Total energy      (eV) =   -1539.575431      -1537.848019
       Temperature       (K)  =     300.773507        299.781389
       C/S temperature   (K)  =       0.762195          0.654871
       Pressure         (GPa) =       2.798511          3.193004
       Cell parameter : a (A) =       9.222193          9.211263
       Cell parameter : b (A) =       9.221634          9.210944
       Cell parameter : c (A) =       9.223183          9.211913
       Cell angle : alpha (o) =      94.715752         94.743093
       Cell angle : beta  (o) =      94.720738         94.745584
       Cell angle : gamma (o) =      94.709721         94.737319
       Cell volume :   (A**3) =     775.941359        773.080852
  ** Time :            0.05000 ps :
     Properties:                   Instantaneous       Averaged
       Kinetic energy    (eV) =       1.344285          1.355047
       Potential energy  (eV) =   -1540.670258      -1539.350861
       Total energy      (eV) =   -1539.325972      -1537.995815
       Temperature       (K)  =     297.138390        299.517089
       C/S temperature   (K)  =       0.671662          0.656550
       Pressure         (GPa) =       1.861059          3.058226
       Cell parameter : a (A) =       9.224059          9.212542
       Cell parameter : b (A) =       9.223434          9.212193
       Cell parameter : c (A) =       9.224869          9.213209
       Cell angle : alpha (o) =      94.721165         94.740900
       Cell angle : beta  (o) =      94.726004         94.743626
       Cell angle : gamma (o) =      94.717411         94.735328
       Cell volume :   (A**3) =     776.369124        773.409679
  ** Time :            0.05500 ps :
     Properties:                   Instantaneous       Averaged
       Kinetic energy    (eV) =       1.351529          1.354727
       Potential energy  (eV) =   -1539.990062      -1539.408970
       Total energy      (eV) =   -1538.638534      -1538.054244
       Temperature       (K)  =     298.739516        299.446401
       C/S temperature   (K)  =       0.645971          0.655588
       Pressure         (GPa) =       0.627152          2.836382
       Cell parameter : a (A) =       9.225242          9.213697
       Cell parameter : b (A) =       9.224623          9.213323
       Cell parameter : c (A) =       9.225884          9.214361
       Cell angle : alpha (o) =      94.735015         94.740365
       Cell angle : beta  (o) =      94.739307         94.743233
       Cell angle : gamma (o) =      94.731939         94.735020
       Cell volume :   (A**3) =     776.602965        773.699978
  ** Time :            0.06000 ps :
     Properties:                   Instantaneous       Averaged
       Kinetic energy    (eV) =       1.360516          1.355209
       Potential energy  (eV) =   -1540.582520      -1539.506766
       Total energy      (eV) =   -1539.222004      -1538.151557
       Temperature       (K)  =     300.726072        299.553040
       C/S temperature   (K)  =       0.550430          0.646825
       Pressure         (GPa) =      -0.620556          2.548313
       Cell parameter : a (A) =       9.225431          9.214675
       Cell parameter : b (A) =       9.224866          9.214285
       Cell parameter : c (A) =       9.226086          9.215338
       Cell angle : alpha (o) =      94.751206         94.741269
       Cell angle : beta  (o) =      94.754564         94.744178
       Cell angle : gamma (o) =      94.745979         94.735933
       Cell volume :   (A**3) =     776.600107        773.941655
  ** Time :            0.06500 ps :
     Properties:                   Instantaneous       Averaged
       Kinetic energy    (eV) =       1.352648          1.355012
       Potential energy  (eV) =   -1540.947304      -1539.617577
       Total energy      (eV) =   -1539.594657      -1538.262565
       Temperature       (K)  =     298.986819        299.509485
       C/S temperature   (K)  =       0.490059          0.634766
       Pressure         (GPa) =      -1.327507          2.250736
       Cell parameter : a (A) =       9.224766          9.215451
       Cell parameter : b (A) =       9.224198          9.215048
       Cell parameter : c (A) =       9.225594          9.216127
       Cell angle : alpha (o) =      94.761203         94.742802
       Cell angle : beta  (o) =      94.763783         94.745686
       Cell angle : gamma (o) =      94.752602         94.737215
       Cell volume :   (A**3) =     776.414440        774.131869
  ** Time :            0.07000 ps :
     Properties:                   Instantaneous       Averaged
       Kinetic energy    (eV) =       1.351633          1.354771
       Potential energy  (eV) =   -1540.912402      -1539.710064
       Total energy      (eV) =   -1539.560769      -1538.355294
       Temperature       (K)  =     298.762532        299.456131
       C/S temperature   (K)  =       0.486009          0.624141
       Pressure         (GPa) =      -1.307465          1.997258
       Cell parameter : a (A) =       9.223705          9.216041
       Cell parameter : b (A) =       9.223098          9.215623
       Cell parameter : c (A) =       9.224689          9.216738
       Cell angle : alpha (o) =      94.760217         94.744046
       Cell angle : beta  (o) =      94.762190         94.746865
       Cell angle : gamma (o) =      94.750484         94.738163
       Cell volume :   (A**3) =     776.162243        774.276896
  ** Time :            0.07500 ps :
     Properties:                   Instantaneous       Averaged
       Kinetic energy    (eV) =       1.349990          1.354452
       Potential energy  (eV) =   -1540.744692      -1539.779040
       Total energy      (eV) =   -1539.394702      -1538.424587
       Temperature       (K)  =     298.399486        299.385688
       C/S temperature   (K)  =       0.627823          0.624386
       Pressure         (GPa) =      -0.508804          1.830610
       Cell parameter : a (A) =       9.222843          9.216494
       Cell parameter : b (A) =       9.222241          9.216064
       Cell parameter : c (A) =       9.223904          9.217216
       Cell angle : alpha (o) =      94.750350         94.744466
       Cell angle : beta  (o) =      94.752403         94.747234
       Cell angle : gamma (o) =      94.742314         94.738440
       Cell volume :   (A**3) =     775.985974        774.390835
  ** Time :            0.08000 ps :
     Properties:                   Instantaneous       Averaged
       Kinetic energy    (eV) =       1.351734          1.354282
       Potential energy  (eV) =   -1540.541375      -1539.826686
       Total energy      (eV) =   -1539.189641      -1538.472403
       Temperature       (K)  =     298.784899        299.348139
       C/S temperature   (K)  =       0.576719          0.621407
       Pressure         (GPa) =       0.603964          1.753929
       Cell parameter : a (A) =       9.222684          9.216881
       Cell parameter : b (A) =       9.222120          9.216442
       Cell parameter : c (A) =       9.223768          9.217626
       Cell angle : alpha (o) =      94.737948         94.744059
       Cell angle : beta  (o) =      94.741341         94.746865
       Cell angle : gamma (o) =      94.731696         94.738018
       Cell volume :   (A**3) =     775.993169        774.490980
  ** Time :            0.08500 ps :
     Properties:                   Instantaneous       Averaged
       Kinetic energy    (eV) =       1.350663          1.354069
       Potential energy  (eV) =   -1540.486721      -1539.865511
       Total energy      (eV) =   -1539.136058      -1538.511442
       Temperature       (K)  =     298.548075        299.301076
       C/S temperature   (K)  =       0.538472          0.616528
       Pressure         (GPa) =       1.462567          1.736382
       Cell parameter : a (A) =       9.223347          9.217261
       Cell parameter : b (A) =       9.222748          9.216813
       Cell parameter : c (A) =       9.224390          9.218024
       Cell angle : alpha (o) =      94.728967         94.743171
       Cell angle : beta  (o) =      94.733779         94.746096
       Cell angle : gamma (o) =      94.723185         94.737146
       Cell volume :   (A**3) =     776.184938        774.590625
  ** Time :            0.09000 ps :
     Properties:                   Instantaneous       Averaged
       Kinetic energy    (eV) =       1.352245          1.353968
       Potential energy  (eV) =   -1540.234029      -1539.885984
       Total energy      (eV) =   -1538.881785      -1538.532016
       Temperature       (K)  =     298.897777        299.278670
       C/S temperature   (K)  =       0.567787          0.613821
       Pressure         (GPa) =       1.930688          1.746511
       Cell parameter : a (A) =       9.224612          9.217670
       Cell parameter : b (A) =       9.223928          9.217209
       Cell parameter : c (A) =       9.225595          9.218444
       Cell angle : alpha (o) =      94.726925         94.742269
       Cell angle : beta  (o) =      94.731570         94.745289
       Cell angle : gamma (o) =      94.720941         94.736246
       Cell volume :   (A**3) =     776.500085        774.696706
  ** Time :            0.09500 ps :
     Properties:                   Instantaneous       Averaged
       Kinetic energy    (eV) =       1.364511          1.354523
       Potential energy  (eV) =   -1540.686121      -1539.928097
       Total energy      (eV) =   -1539.321610      -1538.573574
       Temperature       (K)  =     301.609033        299.401321
       C/S temperature   (K)  =       0.836367          0.625534
       Pressure         (GPa) =       1.585867          1.737339
       Cell parameter : a (A) =       9.226013          9.218109
       Cell parameter : b (A) =       9.225258          9.217632
       Cell parameter : c (A) =       9.226914          9.218890
       Cell angle : alpha (o) =      94.728565         94.741547
       Cell angle : beta  (o) =      94.731526         94.744564
       Cell angle : gamma (o) =      94.722665         94.735531
       Cell volume :   (A**3) =     776.837055        774.809356
  ** Time :            0.10000 ps :
     Properties:                   Instantaneous       Averaged
       Kinetic energy    (eV) =       1.359123          1.354753
       Potential energy  (eV) =   -1541.437062      -1540.003545
       Total energy      (eV) =   -1540.077939      -1538.648792
       Temperature       (K)  =     300.418194        299.452165
       C/S temperature   (K)  =       0.780137          0.633264
       Pressure         (GPa) =       0.477953          1.673956
       Cell parameter : a (A) =       9.226829          9.218545
       Cell parameter : b (A) =       9.226028          9.218052
       Cell parameter : c (A) =       9.227578          9.219324
       Cell angle : alpha (o) =      94.727580         94.740849
       Cell angle : beta  (o) =      94.728258         94.743749
       Cell angle : gamma (o) =      94.722808         94.734895
       Cell volume :   (A**3) =     777.031484        774.920462
  ** Time :            0.10500 ps :
     Properties:                   Instantaneous       Averaged
       Kinetic energy    (eV) =       1.349440          1.354500
       Potential energy  (eV) =   -1541.442401      -1540.072062
       Total energy      (eV) =   -1540.092961      -1538.717562
       Temperature       (K)  =     298.277797        299.396243
       C/S temperature   (K)  =       0.532432          0.628462
       Pressure         (GPa) =      -0.448709          1.572887
       Cell parameter : a (A) =       9.226789          9.218937
       Cell parameter : b (A) =       9.226057          9.218433
       Cell parameter : c (A) =       9.227379          9.219708
       Cell angle : alpha (o) =      94.724014         94.740047
       Cell angle : beta  (o) =      94.723192         94.742770
       Cell angle : gamma (o) =      94.721111         94.734238
       Cell volume :   (A**3) =     777.026584        775.020754
  ** Time :            0.11000 ps :
     Properties:                   Instantaneous       Averaged
       Kinetic energy    (eV) =       1.345675          1.354099
       Potential energy  (eV) =   -1540.934318      -1540.111256
       Total energy      (eV) =   -1539.588644      -1538.757157
       Temperature       (K)  =     297.445532        299.307574
       C/S temperature   (K)  =       0.511696          0.623155
       Pressure         (GPa) =      -0.530246          1.477491
       Cell parameter : a (A) =       9.226324          9.219273
       Cell parameter : b (A) =       9.225715          9.218764
       Cell parameter : c (A) =       9.226866          9.220033
       Cell angle : alpha (o) =      94.721172         94.739189
       Cell angle : beta  (o) =      94.721300         94.741794
       Cell angle : gamma (o) =      94.719747         94.733580
       Cell volume :   (A**3) =     776.922917        775.107216
  ** Time :            0.11500 ps :
     Properties:                   Instantaneous       Averaged
       Kinetic energy    (eV) =       1.344868          1.353697
       Potential energy  (eV) =   -1540.058695      -1540.108970
       Total energy      (eV) =   -1538.713827      -1538.755273
       Temperature       (K)  =     297.267209        299.218862
       C/S temperature   (K)  =       0.693105          0.626196
       Pressure         (GPa) =       0.011096          1.413826
       Cell parameter : a (A) =       9.226138          9.219572
       Cell parameter : b (A) =       9.225456          9.219055
       Cell parameter : c (A) =       9.226876          9.220331
       Cell angle : alpha (o) =      94.723547         94.738509
       Cell angle : beta  (o) =      94.727735         94.741183
       Cell angle : gamma (o) =      94.722031         94.733077
       Cell volume :   (A**3) =     776.872694        775.183976
  ** Time :            0.12000 ps :
     Properties:                   Instantaneous       Averaged
       Kinetic energy    (eV) =       1.360516          1.353982
       Potential energy  (eV) =   -1539.828776      -1540.097296
       Total energy      (eV) =   -1538.468259      -1538.743314
       Temperature       (K)  =     300.726135        299.281665
       C/S temperature   (K)  =       0.716005          0.629938
       Pressure         (GPa) =       0.119349          1.359848
       Cell parameter : a (A) =       9.226411          9.219857
       Cell parameter : b (A) =       9.225390          9.219319
       Cell parameter : c (A) =       9.227538          9.220631
       Cell angle : alpha (o) =      94.735665         94.738391
       Cell angle : beta  (o) =      94.745367         94.741357
       Cell angle : gamma (o) =      94.732313         94.733046
       Cell volume :   (A**3) =     776.896342        775.255324
  ** Time :            0.12500 ps :
     Properties:                   Instantaneous       Averaged
       Kinetic energy    (eV) =       1.364941          1.354420
       Potential energy  (eV) =   -1540.810355      -1540.125818
       Total energy      (eV) =   -1539.445414      -1538.771398
       Temperature       (K)  =     301.704019        299.378559
       C/S temperature   (K)  =       0.818361          0.637475
       Pressure         (GPa) =      -0.142445          1.299762
       Cell parameter : a (A) =       9.226644          9.220128
       Cell parameter : b (A) =       9.225344          9.219560
       Cell parameter : c (A) =       9.228156          9.220932
       Cell angle : alpha (o) =      94.754909         94.739051
       Cell angle : beta  (o) =      94.767606         94.742407
       Cell angle : gamma (o) =      94.748557         94.733666
       Cell volume :   (A**3) =     776.892764        775.320822
  ** Time :            0.13000 ps :
     Properties:                   Instantaneous       Averaged
       Kinetic energy    (eV) =       1.356587          1.354503
       Potential energy  (eV) =   -1541.357894      -1540.173205
       Total energy      (eV) =   -1540.001307      -1538.818702
       Temperature       (K)  =     299.857607        299.396984
       C/S temperature   (K)  =       0.838353          0.645201
       Pressure         (GPa) =      -0.122756          1.245097
       Cell parameter : a (A) =       9.226679          9.220380
       Cell parameter : b (A) =       9.225387          9.219784
       Cell parameter : c (A) =       9.228396          9.221219
       Cell angle : alpha (o) =      94.771312         94.740292
       Cell angle : beta  (o) =      94.782794         94.743961
       Cell angle : gamma (o) =      94.761885         94.734751
       Cell volume :   (A**3) =     776.863677        775.380163
  ** Time :            0.13500 ps :
     Properties:                   Instantaneous       Averaged
       Kinetic energy    (eV) =       1.350510          1.354355
       Potential energy  (eV) =   -1541.108197      -1540.207835
       Total energy      (eV) =   -1539.757687      -1538.853479
       Temperature       (K)  =     298.514276        299.364292
       C/S temperature   (K)  =       0.783904          0.650338
       Pressure         (GPa) =       0.117265          1.203329
       Cell parameter : a (A) =       9.226680          9.220613
       Cell parameter : b (A) =       9.225594          9.219999
       Cell parameter : c (A) =       9.228343          9.221483
       Cell angle : alpha (o) =      94.777617         94.741675
       Cell angle : beta  (o) =      94.785658         94.745505
       Cell angle : gamma (o) =      94.765350         94.735885
       Cell volume :   (A**3) =     776.861038        775.435010
  ** Time :            0.14000 ps :
     Properties:                   Instantaneous       Averaged
       Kinetic energy    (eV) =       1.357213          1.354457
       Potential energy  (eV) =   -1540.918403      -1540.233212
       Total energy      (eV) =   -1539.561190      -1538.878755
       Temperature       (K)  =     299.995939        299.386850
       C/S temperature   (K)  =       0.770789          0.654640
       Pressure         (GPa) =       0.371317          1.173548
       Cell parameter : a (A) =       9.226697          9.220831
       Cell parameter : b (A) =       9.225854          9.220208
       Cell parameter : c (A) =       9.228218          9.221724
       Cell angle : alpha (o) =      94.770647         94.742709
       Cell angle : beta  (o) =      94.776038         94.746595
       Cell angle : gamma (o) =      94.756429         94.736618
       Cell volume :   (A**3) =     776.905562        775.487530
  ** Time :            0.14500 ps :
     Properties:                   Instantaneous       Averaged
       Kinetic energy    (eV) =       1.357388          1.354558
       Potential energy  (eV) =   -1541.270657      -1540.268986
       Total energy      (eV) =   -1539.913268      -1538.914428
       Temperature       (K)  =     300.034725        299.409191
       C/S temperature   (K)  =       0.831980          0.660755
       Pressure         (GPa) =       0.650080          1.155364
       Cell parameter : a (A) =       9.226795          9.221036
       Cell parameter : b (A) =       9.226067          9.220410
       Cell parameter : c (A) =       9.228334          9.221952
       Cell angle : alpha (o) =      94.755723         94.743158
       Cell angle : beta  (o) =      94.760736         94.747083
       Cell angle : gamma (o) =      94.741888         94.736800
       Cell volume :   (A**3) =     776.997124        775.539585
  ** Time :            0.15000 ps :
     Properties:                   Instantaneous       Averaged
       Kinetic energy    (eV) =       1.349890          1.354403
       Potential energy  (eV) =   -1541.058806      -1540.295313
       Total energy      (eV) =   -1539.708916      -1538.940911
       Temperature       (K)  =     298.377371        299.374797
       C/S temperature   (K)  =       0.816958          0.665962
       Pressure         (GPa) =       0.784737          1.142813
       Cell parameter : a (A) =       9.227181          9.221241
       Cell parameter : b (A) =       9.226376          9.220609
       Cell parameter : c (A) =       9.228827          9.222181
       Cell angle : alpha (o) =      94.744262         94.743195
       Cell angle : beta  (o) =      94.750969         94.747213
       Cell angle : gamma (o) =      94.733253         94.736682
       Cell volume :   (A**3) =     777.134096        775.592735
  ** Time :            0.15500 ps :
     Properties:                   Instantaneous       Averaged
       Kinetic energy    (eV) =       1.352417          1.354339
       Potential energy  (eV) =   -1540.594290      -1540.304958
       Total energy      (eV) =   -1539.241872      -1538.950619
       Temperature       (K)  =     298.935891        299.360639
       C/S temperature   (K)  =       0.738501          0.668302
       Pressure         (GPa) =       0.200354          1.112262
       Cell parameter : a (A) =       9.227675          9.221449
       Cell parameter : b (A) =       9.226728          9.220807
       Cell parameter : c (A) =       9.229264          9.222409
       Cell angle : alpha (o) =      94.742727         94.743180
       Cell angle : beta  (o) =      94.752480         94.747382
       Cell angle : gamma (o) =      94.736303         94.736670
       Cell volume :   (A**3) =     777.238448        775.645822
  ** Time :            0.16000 ps :
     Properties:                   Instantaneous       Averaged
       Kinetic energy    (eV) =       1.360880          1.354543
       Potential energy  (eV) =   -1540.939288      -1540.324781
       Total energy      (eV) =   -1539.578408      -1538.970237
       Temperature       (K)  =     300.806399        299.405819
       C/S temperature   (K)  =       0.706342          0.669491
       Pressure         (GPa) =      -0.899515          1.049480
       Cell parameter : a (A) =       9.227691          9.221644
       Cell parameter : b (A) =       9.226768          9.220993
       Cell parameter : c (A) =       9.228863          9.222611
       Cell angle : alpha (o) =      94.749194         94.743368
       Cell angle : beta  (o) =      94.760808         94.747802
       Cell angle : gamma (o) =      94.748089         94.737027
       Cell volume :   (A**3) =     777.176439        775.693654
  ** Time :            0.16500 ps :
     Properties:                   Instantaneous       Averaged
       Kinetic energy    (eV) =       1.355374          1.354568
       Potential energy  (eV) =   -1541.369557      -1540.356441
       Total energy      (eV) =   -1540.014183      -1539.001872
       Temperature       (K)  =     299.589388        299.411381
       C/S temperature   (K)  =       0.801428          0.673489
       Pressure         (GPa) =      -1.615839          0.969023
       Cell parameter : a (A) =       9.226985          9.221806
       Cell parameter : b (A) =       9.226267          9.221153
       Cell parameter : c (A) =       9.227597          9.222762
       Cell angle : alpha (o) =      94.755980         94.743750
       Cell angle : beta  (o) =      94.766618         94.748372
       Cell angle : gamma (o) =      94.758616         94.737681
       Cell volume :   (A**3) =     776.939551        775.731409
  ** Time :            0.17000 ps :
     Properties:                   Instantaneous       Averaged
       Kinetic energy    (eV) =       1.345685          1.354307
       Potential energy  (eV) =   -1540.904183      -1540.372551
       Total energy      (eV) =   -1539.558499      -1539.018244
       Temperature       (K)  =     297.447702        299.353626
       C/S temperature   (K)  =       0.704753          0.674408
       Pressure         (GPa) =      -1.745192          0.889575
       Cell parameter : a (A) =       9.225781          9.221923
       Cell parameter : b (A) =       9.225257          9.221274
       Cell parameter : c (A) =       9.226093          9.222860
       Cell angle : alpha (o) =      94.757065         94.744142
       Cell angle : beta  (o) =      94.765038         94.748862
       Cell angle : gamma (o) =      94.760456         94.738351
       Cell volume :   (A**3) =     776.624872        775.757687
  ** Time :            0.17500 ps :
     Properties:                   Instantaneous       Averaged
       Kinetic energy    (eV) =       1.354368          1.354309
       Potential energy  (eV) =   -1540.388439      -1540.373005
       Total energy      (eV) =   -1539.034070      -1539.018696
       Temperature       (K)  =     299.367152        299.354012
       C/S temperature   (K)  =       0.605173          0.672430
       Pressure         (GPa) =      -1.271116          0.828157
       Cell parameter : a (A) =       9.224483          9.221996
       Cell parameter : b (A) =       9.223959          9.221350
       Cell parameter : c (A) =       9.224988          9.222921
       Cell angle : alpha (o) =      94.751374         94.744348
       Cell angle : beta  (o) =      94.756654         94.749085
       Cell angle : gamma (o) =      94.752741         94.738762
       Cell volume :   (A**3) =     776.340455        775.774338
  ** Time :            0.18000 ps :
     Properties:                   Instantaneous       Averaged
       Kinetic energy    (eV) =       1.363714          1.354570
       Potential energy  (eV) =   -1541.050413      -1540.391821
       Total energy      (eV) =   -1539.686699      -1539.037251
       Temperature       (K)  =     301.432952        299.411761
       C/S temperature   (K)  =       0.800610          0.675991
       Pressure         (GPa) =      -0.409674          0.793935
       Cell parameter : a (A) =       9.223582          9.222040
       Cell parameter : b (A) =       9.222852          9.221392
       Cell parameter : c (A) =       9.224759          9.222972
       Cell angle : alpha (o) =      94.744549         94.744354
       Cell angle : beta  (o) =      94.748937         94.749081
       Cell angle : gamma (o) =      94.741373         94.738834
       Cell volume :   (A**3) =     776.184197        775.785722
  ** Time :            0.18500 ps :
     Properties:                   Instantaneous       Averaged
       Kinetic energy    (eV) =       1.356564          1.354624
       Potential energy  (eV) =   -1541.520829      -1540.422335
       Total energy      (eV) =   -1540.164265      -1539.067711
       Temperature       (K)  =     299.852440        299.423671
       C/S temperature   (K)  =       0.897391          0.681974
       Pressure         (GPa) =       0.391996          0.783072
       Cell parameter : a (A) =       9.223348          9.222075
       Cell parameter : b (A) =       9.222444          9.221420
       Cell parameter : c (A) =       9.225258          9.223034
       Cell angle : alpha (o) =      94.742766         94.744311
       Cell angle : beta  (o) =      94.748760         94.749072
       Cell angle : gamma (o) =      94.733861         94.738700
       Cell volume :   (A**3) =     776.183820        775.796482
  ** Time :            0.19000 ps :
     Properties:                   Instantaneous       Averaged
       Kinetic energy    (eV) =       1.350513          1.354516
       Potential energy  (eV) =   -1541.246671      -1540.444028
       Total energy      (eV) =   -1539.896157      -1539.089512
       Temperature       (K)  =     298.515062        299.399760
       C/S temperature   (K)  =       0.820731          0.685626
       Pressure         (GPa) =       0.942111          0.787134
       Cell parameter : a (A) =       9.223755          9.222119
       Cell parameter : b (A) =       9.222914          9.221460
       Cell parameter : c (A) =       9.226034          9.223113
       Cell angle : alpha (o) =      94.747100         94.744384
       Cell angle : beta  (o) =      94.755326         94.749237
       Cell angle : gamma (o) =      94.734041         94.738577
       Cell volume :   (A**3) =     776.309163        775.809973
  ** Time :            0.19500 ps :
     Properties:                   Instantaneous       Averaged
       Kinetic energy    (eV) =       1.353503          1.354490
       Potential energy  (eV) =   -1540.909383      -1540.455960
       Total energy      (eV) =   -1539.555880      -1539.101471
       Temperature       (K)  =     299.175993        299.394023
       C/S temperature   (K)  =       0.722424          0.686569
       Pressure         (GPa) =       0.994593          0.792270
       Cell parameter : a (A) =       9.224546          9.222182
       Cell parameter : b (A) =       9.223988          9.221525
       Cell parameter : c (A) =       9.226683          9.223204
       Cell angle : alpha (o) =      94.754152         94.744635
       Cell angle : beta  (o) =      94.762342         94.749573
       Cell angle : gamma (o) =      94.740476         94.738626
       Cell volume :   (A**3) =     776.495382        775.827548
  ** Time :            0.20000 ps :
     Properties:                   Instantaneous       Averaged
       Kinetic energy    (eV) =       1.355856          1.354524
       Potential energy  (eV) =   -1540.960393      -1540.468571
       Total energy      (eV) =   -1539.604537      -1539.114047
       Temperature       (K)  =     299.695993        299.401572
       C/S temperature   (K)  =       0.795118          0.689283
       Pressure         (GPa) =       0.363764          0.781425
       Cell parameter : a (A) =       9.225174          9.222256
       Cell parameter : b (A) =       9.224863          9.221608
       Cell parameter : c (A) =       9.226887          9.223296
       Cell angle : alpha (o) =      94.756919         94.744942
       Cell angle : beta  (o) =      94.762791         94.749903
       Cell angle : gamma (o) =      94.745686         94.738802
       Cell volume :   (A**3) =     776.628709        775.847577
  ** Time :            0.20500 ps :
     Properties:                   Instantaneous       Averaged
       Kinetic energy    (eV) =       1.351523          1.354451
       Potential energy  (eV) =   -1540.828902      -1540.477360
       Total energy      (eV) =   -1539.477379      -1539.122909
       Temperature       (K)  =     298.738242        299.385393
       C/S temperature   (K)  =       0.728468          0.690239
       Pressure         (GPa) =      -0.504133          0.750082
       Cell parameter : a (A) =       9.225152          9.222327
       Cell parameter : b (A) =       9.224826          9.221687
       Cell parameter : c (A) =       9.226591          9.223377
       Cell angle : alpha (o) =      94.751964         94.745113
       Cell angle : beta  (o) =      94.755880         94.750049
       Cell angle : gamma (o) =      94.743712         94.738922
       Cell volume :   (A**3) =     776.616038        775.866320
  ** Time :            0.21000 ps :
     Properties:                   Instantaneous       Averaged
       Kinetic energy    (eV) =       1.356504          1.354500
       Potential energy  (eV) =   -1540.726087      -1540.483282
       Total energy      (eV) =   -1539.369582      -1539.128782
       Temperature       (K)  =     299.839302        299.396200
       C/S temperature   (K)  =       0.663213          0.689595
       Pressure         (GPa) =      -1.043810          0.707510
       Cell parameter : a (A) =       9.224488          9.222378
       Cell parameter : b (A) =       9.223929          9.221740
       Cell parameter : c (A) =       9.226021          9.223440
       Cell angle : alpha (o) =      94.743365         94.745072
       Cell angle : beta  (o) =      94.746470         94.749964
       Cell angle : gamma (o) =      94.735999         94.738853
       Cell volume :   (A**3) =     776.468362        775.880654
  ** Time :            0.21500 ps :
     Properties:                   Instantaneous       Averaged
       Kinetic energy    (eV) =       1.359461          1.354615
       Potential energy  (eV) =   -1541.186588      -1540.499638
       Total energy      (eV) =   -1539.827127      -1539.145023
       Temperature       (K)  =     300.492938        299.421706
       C/S temperature   (K)  =       0.805925          0.692301
       Pressure         (GPa) =      -1.073781          0.666262
       Cell parameter : a (A) =       9.223659          9.222408
       Cell parameter : b (A) =       9.222846          9.221766
       Cell parameter : c (A) =       9.225310          9.223483
       Cell angle : alpha (o) =      94.737781         94.744902
       Cell angle : beta  (o) =      94.740712         94.749749
       Cell angle : gamma (o) =      94.729959         94.738646
       Cell volume :   (A**3) =     776.269137        775.889689
  ** Time :            0.22000 ps :
     Properties:                   Instantaneous       Averaged
       Kinetic energy    (eV) =       1.354657          1.354616
       Potential energy  (eV) =   -1541.283656      -1540.517456
       Total energy      (eV) =   -1539.928999      -1539.162840
       Temperature       (K)  =     299.430956        299.421916
       C/S temperature   (K)  =       0.908484          0.697214
       Pressure         (GPa) =      -0.810832          0.632837
       Cell parameter : a (A) =       9.223124          9.222425
       Cell parameter : b (A) =       9.222189          9.221775
       Cell parameter : c (A) =       9.224504          9.223506
       Cell angle : alpha (o) =      94.738447         94.744755
       Cell angle : beta  (o) =      94.742107         94.749575
       Cell angle : gamma (o) =      94.732772         94.738512
       Cell volume :   (A**3) =     776.094934        775.894354
  ** Time :            0.22500 ps :
     Properties:                   Instantaneous       Averaged
       Kinetic energy    (eV) =       1.355035          1.354625
       Potential energy  (eV) =   -1541.136157      -1540.531205
       Total energy      (eV) =   -1539.781122      -1539.176580
       Temperature       (K)  =     299.514471        299.423973
       C/S temperature   (K)  =       0.849568          0.700600
       Pressure         (GPa) =      -0.495757          0.607852
       Cell parameter : a (A) =       9.222919          9.222436
       Cell parameter : b (A) =       9.222063          9.221782
       Cell parameter : c (A) =       9.223759          9.223512
       Cell angle : alpha (o) =      94.743544         94.744728
       Cell angle : beta  (o) =      94.749223         94.749567
       Cell angle : gamma (o) =      94.743403         94.738621
       Cell volume :   (A**3) =     775.976181        775.896172
  ** Time :            0.23000 ps :
     Properties:                   Instantaneous       Averaged
       Kinetic energy    (eV) =       1.353623          1.354604
       Potential energy  (eV) =   -1541.073344      -1540.542991
       Total energy      (eV) =   -1539.719720      -1539.188387
       Temperature       (K)  =     299.202484        299.419158
       C/S temperature   (K)  =       0.788427          0.702509
       Pressure         (GPa) =      -0.289116          0.588406
       Cell parameter : a (A) =       9.222812          9.222444
       Cell parameter : b (A) =       9.222131          9.221789
       Cell parameter : c (A) =       9.223279          9.223507
       Cell angle : alpha (o) =      94.748218         94.744804
       Cell angle : beta  (o) =      94.756177         94.749711
       Cell angle : gamma (o) =      94.752400         94.738921
       Cell volume :   (A**3) =     775.907053        775.896408
  ** Time :            0.23500 ps :
     Properties:                   Instantaneous       Averaged
       Kinetic energy    (eV) =       1.352624          1.354561
       Potential energy  (eV) =   -1540.829945      -1540.549096
       Total energy      (eV) =   -1539.477321      -1539.194535
       Temperature       (K)  =     298.981557        299.409847
       C/S temperature   (K)  =       0.790441          0.704380
       Pressure         (GPa) =      -0.308163          0.569367
       Cell parameter : a (A) =       9.222585          9.222447
       Cell parameter : b (A) =       9.221870          9.221791
       Cell parameter : c (A) =       9.223162          9.223499
       Cell angle : alpha (o) =      94.748480         94.744882
       Cell angle : beta  (o) =      94.757194         94.749870
       Cell angle : gamma (o) =      94.750734         94.739172
       Cell volume :   (A**3) =     775.856678        775.895563
  ** Time :            0.24000 ps :
     Properties:                   Instantaneous       Averaged
       Kinetic energy    (eV) =       1.356163          1.354595
       Potential energy  (eV) =   -1540.723554      -1540.552731
       Total energy      (eV) =   -1539.367391      -1539.198136
       Temperature       (K)  =     299.763850        299.417222
       C/S temperature   (K)  =       0.851275          0.707440
       Pressure         (GPa) =      -0.452361          0.548132
       Cell parameter : a (A) =       9.222091          9.222439
       Cell parameter : b (A) =       9.221029          9.221775
       Cell parameter : c (A) =       9.223289          9.223495
       Cell angle : alpha (o) =      94.743157         94.744846
       Cell angle : beta  (o) =      94.751038         94.749894
       Cell angle : gamma (o) =      94.736710         94.739121
       Cell volume :   (A**3) =     775.786569        775.893292
  ** Time :            0.24500 ps :
     Properties:                   Instantaneous       Averaged
       Kinetic energy    (eV) =       1.358006          1.354664
       Potential energy  (eV) =   -1540.868991      -1540.559185
       Total energy      (eV) =   -1539.510985      -1539.204521
       Temperature       (K)  =     300.171171        299.432609
       C/S temperature   (K)  =       0.878857          0.710938
       Pressure         (GPa) =      -0.350259          0.529851
       Cell parameter : a (A) =       9.221426          9.222419
       Cell parameter : b (A) =       9.220010          9.221739
       Cell parameter : c (A) =       9.223490          9.223495
       Cell angle : alpha (o) =      94.734323         94.744632
       Cell angle : beta  (o) =      94.741590         94.749725
       Cell angle : gamma (o) =      94.716749         94.738664
       Cell volume :   (A**3) =     775.708917        775.889530
  ** Time :            0.25000 ps :
     Properties:                   Instantaneous       Averaged
       Kinetic energy    (eV) =       1.358106          1.354733
       Potential energy  (eV) =   -1541.107424      -1540.570150
       Total energy      (eV) =   -1539.749319      -1539.215417
       Temperature       (K)  =     300.193276        299.447822
       C/S temperature   (K)  =       0.858879          0.713897
       Pressure         (GPa) =      -0.183853          0.515608
       Cell parameter : a (A) =       9.220900          9.222388
       Cell parameter : b (A) =       9.219381          9.221692
       Cell parameter : c (A) =       9.223682          9.223499
       Cell angle : alpha (o) =      94.727543         94.744290
       Cell angle : beta  (o) =      94.734892         94.749428
       Cell angle : gamma (o) =      94.701726         94.737925
       Cell volume :   (A**3) =     775.662926        775.884998
  ** Time :            0.25500 ps :
     Properties:                   Instantaneous       Averaged
       Kinetic energy    (eV) =       1.355909          1.354756
       Potential energy  (eV) =   -1541.248454      -1540.583450
       Total energy      (eV) =   -1539.892546      -1539.228694
       Temperature       (K)  =     299.707612        299.452916
       C/S temperature   (K)  =       0.830755          0.716189
       Pressure         (GPa) =      -0.286562          0.499904
       Cell parameter : a (A) =       9.220600          9.222353
       Cell parameter : b (A) =       9.219125          9.221642
       Cell parameter : c (A) =       9.223721          9.223503
       Cell angle : alpha (o) =      94.727017         94.743951
       Cell angle : beta  (o) =      94.734874         94.749143
       Cell angle : gamma (o) =      94.698429         94.737151
       Cell volume :   (A**3) =     775.624118        775.879882
  ** Time :            0.26000 ps :
     Properties:                   Instantaneous       Averaged
       Kinetic energy    (eV) =       1.355679          1.354774
       Potential energy  (eV) =   -1541.223125      -1540.595751
       Total energy      (eV) =   -1539.867446      -1539.240977
       Temperature       (K)  =     299.656887        299.456839
       C/S temperature   (K)  =       0.910638          0.719928
       Pressure         (GPa) =      -0.465514          0.481382
       Cell parameter : a (A) =       9.220424          9.222316
       Cell parameter : b (A) =       9.218915          9.221589
       Cell parameter : c (A) =       9.223510          9.223503
       Cell angle : alpha (o) =      94.731228         94.743707
       Cell angle : beta  (o) =      94.740240         94.748972
       Cell angle : gamma (o) =      94.704473         94.736522
       Cell volume :   (A**3) =     775.554740        775.873630
  ** Time :            0.26500 ps :
     Properties:                   Instantaneous       Averaged
       Kinetic energy    (eV) =       1.353859          1.354757
       Potential energy  (eV) =   -1541.081719      -1540.604921
       Total energy      (eV) =   -1539.727860      -1539.250164
       Temperature       (K)  =     299.254509        299.453021
       C/S temperature   (K)  =       0.913013          0.723571
       Pressure         (GPa) =      -0.523438          0.462479
       Cell parameter : a (A) =       9.220240          9.222277
       Cell parameter : b (A) =       9.218615          9.221533
       Cell parameter : c (A) =       9.223164          9.223497
       Cell angle : alpha (o) =      94.735330         94.743549
       Cell angle : beta  (o) =      94.746173         94.748919
       Cell angle : gamma (o) =      94.711537         94.736051
       Cell volume :   (A**3) =     775.463826        775.865897
  ** Time :            0.27000 ps :
     Properties:                   Instantaneous       Averaged
       Kinetic energy    (eV) =       1.355176          1.354765
       Potential energy  (eV) =   -1540.908560      -1540.610544
       Total energy      (eV) =   -1539.553385      -1539.255779
       Temperature       (K)  =     299.545640        299.454737
       C/S temperature   (K)  =       0.782013          0.724653
       Pressure         (GPa) =      -0.614523          0.442594
       Cell parameter : a (A) =       9.219947          9.222234
       Cell parameter : b (A) =       9.218231          9.221472
       Cell parameter : c (A) =       9.222722          9.223482
       Cell angle : alpha (o) =      94.736039         94.743409
       Cell angle : beta  (o) =      94.748651         94.748914
       Cell angle : gamma (o) =      94.714466         94.735651
       Cell volume :   (A**3) =     775.362179        775.856569
  ** Time :            0.27500 ps :
     Properties:                   Instantaneous       Averaged
       Kinetic energy    (eV) =       1.357077          1.354807
       Potential energy  (eV) =   -1541.078614      -1540.619054
       Total energy      (eV) =   -1539.721537      -1539.264247
       Temperature       (K)  =     299.965825        299.464029
       C/S temperature   (K)  =       0.782816          0.725711
       Pressure         (GPa) =      -0.623664          0.423273
       Cell parameter : a (A) =       9.219603          9.222186
       Cell parameter : b (A) =       9.217837          9.221406
       Cell parameter : c (A) =       9.222039          9.223456
       Cell angle : alpha (o) =      94.734277         94.743243
       Cell angle : beta  (o) =      94.747171         94.748882
       Cell angle : gamma (o) =      94.716134         94.735296
       Cell volume :   (A**3) =     775.244707        775.845445
  ** Time :            0.28000 ps :
     Properties:                   Instantaneous       Averaged
       Kinetic energy    (eV) =       1.354078          1.354794
       Potential energy  (eV) =   -1541.073389      -1540.627167
       Total energy      (eV) =   -1539.719311      -1539.272374
       Temperature       (K)  =     299.302917        299.461152
       C/S temperature   (K)  =       0.914710          0.729086
       Pressure         (GPa) =      -0.139203          0.413271
       Cell parameter : a (A) =       9.219505          9.222138
       Cell parameter : b (A) =       9.217738          9.221340
       Cell parameter : c (A) =       9.221331          9.223418
       Cell angle : alpha (o) =      94.733575         94.743071
       Cell angle : beta  (o) =      94.744754         94.748809
       Cell angle : gamma (o) =      94.720940         94.735040
       Cell volume :   (A**3) =     775.166542        775.833321
  ** Time :            0.28500 ps :
     Properties:                   Instantaneous       Averaged
       Kinetic energy    (eV) =       1.354315          1.354785
       Potential energy  (eV) =   -1540.796857      -1540.630144
       Total energy      (eV) =   -1539.442542      -1539.275359
       Temperature       (K)  =     299.355326        299.459295
       C/S temperature   (K)  =       0.907700          0.732219
       Pressure         (GPa) =       0.597031          0.416473
       Cell parameter : a (A) =       9.219910          9.222099
       Cell parameter : b (A) =       9.218177          9.221285
       Cell parameter : c (A) =       9.221143          9.223378
       Cell angle : alpha (o) =      94.736398         94.742954
       Cell angle : beta  (o) =      94.745330         94.748747
       Cell angle : gamma (o) =      94.728360         94.734923
       Cell volume :   (A**3) =     775.208322        775.822356
  ** Time :            0.29000 ps :
     Properties:                   Instantaneous       Averaged
       Kinetic energy    (eV) =       1.358461          1.354849
       Potential energy  (eV) =   -1540.876307      -1540.634388
       Total energy      (eV) =   -1539.517846      -1539.279540
       Temperature       (K)  =     300.271812        299.473304
       C/S temperature   (K)  =       0.817031          0.733682
       Pressure         (GPa) =       0.863912          0.424112
       Cell parameter : a (A) =       9.220632          9.222074
       Cell parameter : b (A) =       9.218894          9.221244
       Cell parameter : c (A) =       9.221655          9.223349
       Cell angle : alpha (o) =      94.742099         94.742939
       Cell angle : beta  (o) =      94.750691         94.748781
       Cell angle : gamma (o) =      94.734496         94.734916
       Cell volume :   (A**3) =     775.351280        775.814234
  ** Time :            0.29500 ps :
     Properties:                   Instantaneous       Averaged
       Kinetic energy    (eV) =       1.359921          1.354935
       Potential energy  (eV) =   -1541.281741      -1540.645360
       Total energy      (eV) =   -1539.921820      -1539.290426
       Temperature       (K)  =     300.594487        299.492307
       C/S temperature   (K)  =       0.847636          0.735613
       Pressure         (GPa) =       0.501480          0.425353
       Cell parameter : a (A) =       9.221135          9.222058
       Cell parameter : b (A) =       9.219335          9.221211
       Cell parameter : c (A) =       9.222467          9.223334
       Cell angle : alpha (o) =      94.747089         94.743009
       Cell angle : beta  (o) =      94.757962         94.748937
       Cell angle : gamma (o) =      94.735625         94.734928
       Cell volume :   (A**3) =     775.482342        775.808609
  ** Time :            0.30000 ps :
     Properties:                   Instantaneous       Averaged
       Kinetic energy    (eV) =       1.354561          1.354928
       Potential energy  (eV) =   -1541.454080      -1540.658839
       Total energy      (eV) =   -1540.099520      -1539.303911
       Temperature       (K)  =     299.409649        299.490930
       C/S temperature   (K)  =       0.934158          0.738922
       Pressure         (GPa) =      -0.022436          0.417866
       Cell parameter : a (A) =       9.221090          9.222042
       Cell parameter : b (A) =       9.219291          9.221179
       Cell parameter : c (A) =       9.223062          9.223329
       Cell angle : alpha (o) =      94.747783         94.743089
       Cell angle : beta  (o) =      94.761937         94.749153
       Cell angle : gamma (o) =      94.730392         94.734852
       Cell volume :   (A**3) =     775.525559        775.803892
  ** Time :            0.30500 ps :
     Properties:                   Instantaneous       Averaged
       Kinetic energy    (eV) =       1.348883          1.354829
       Potential energy  (eV) =   -1540.917165      -1540.663074
       Total energy      (eV) =   -1539.568282      -1539.308245
       Temperature       (K)  =     298.154689        299.469024
       C/S temperature   (K)  =       0.894323          0.741470
       Pressure         (GPa) =      -0.427243          0.404034
       Cell parameter : a (A) =       9.220627          9.222018
       Cell parameter : b (A) =       9.218963          9.221143
       Cell parameter : c (A) =       9.223121          9.223326
       Cell angle : alpha (o) =      94.743307         94.743092
       Cell angle : beta  (o) =      94.759191         94.749318
       Cell angle : gamma (o) =      94.721315         94.734630
       Cell volume :   (A**3) =     775.484088        775.798649
  ** Time :            0.31000 ps :
     Properties:                   Instantaneous       Averaged
       Kinetic energy    (eV) =       1.355641          1.354842
       Potential energy  (eV) =   -1540.529823      -1540.660925
       Total energy      (eV) =   -1539.174181      -1539.306082
       Temperature       (K)  =     299.648511        299.471919
       C/S temperature   (K)  =       0.772219          0.741966
       Pressure         (GPa) =      -0.854147          0.383799
       Cell parameter : a (A) =       9.220038          9.221987
       Cell parameter : b (A) =       9.218528          9.221101
       Cell parameter : c (A) =       9.222470          9.223312
       Cell angle : alpha (o) =      94.737100         94.742996
       Cell angle : beta  (o) =      94.750876         94.749343
       Cell angle : gamma (o) =      94.714396         94.734304
       Cell volume :   (A**3) =     775.369738        775.791731
  ** Time :            0.31500 ps :
     Properties:                   Instantaneous       Averaged
       Kinetic energy    (eV) =       1.360735          1.354936
       Potential energy  (eV) =   -1540.917115      -1540.664991
       Total energy      (eV) =   -1539.556380      -1539.310055
       Temperature       (K)  =     300.774419        299.492594
       C/S temperature   (K)  =       0.806548          0.742991
       Pressure         (GPa) =      -1.180608          0.359059
       Cell parameter : a (A) =       9.219382          9.221945
       Cell parameter : b (A) =       9.217947          9.221051
       Cell parameter : c (A) =       9.221308          9.223280
       Cell angle : alpha (o) =      94.734441         94.742860
       Cell angle : beta  (o) =      94.743636         94.749252
       Cell angle : gamma (o) =      94.713759         94.733978
       Cell volume :   (A**3) =     775.180958        775.782036
  ** Time :            0.32000 ps :
     Properties:                   Instantaneous       Averaged
       Kinetic energy    (eV) =       1.358112          1.354985
       Potential energy  (eV) =   -1541.327316      -1540.675340
       Total energy      (eV) =   -1539.969205      -1539.320355
       Temperature       (K)  =     300.194560        299.503562
       C/S temperature   (K)  =       0.907129          0.745556
       Pressure         (GPa) =      -1.091070          0.336498
       Cell parameter : a (A) =       9.218673          9.221894
       Cell parameter : b (A) =       9.217246          9.220991
       Cell parameter : c (A) =       9.220253          9.223233
       Cell angle : alpha (o) =      94.736441         94.742760
       Cell angle : beta  (o) =      94.742856         94.749152
       Cell angle : gamma (o) =      94.717131         94.733714
       Cell volume :   (A**3) =     774.968075        775.769318
  ** Time :            0.32500 ps :
     Properties:                   Instantaneous       Averaged
       Kinetic energy    (eV) =       1.352802          1.354952
       Potential energy  (eV) =   -1541.215507      -1540.683650
       Total energy      (eV) =   -1539.862705      -1539.328698
       Temperature       (K)  =     299.021008        299.496138
       C/S temperature   (K)  =       0.919653          0.748234
       Pressure         (GPa) =      -0.665769          0.321148
       Cell parameter : a (A) =       9.218114          9.221836
       Cell parameter : b (A) =       9.216652          9.220924
       Cell parameter : c (A) =       9.219655          9.223178
       Cell angle : alpha (o) =      94.740322         94.742722
       Cell angle : beta  (o) =      94.747196         94.749122
       Cell angle : gamma (o) =      94.721583         94.733528
       Cell volume :   (A**3) =     774.805350        775.754488
  ** Time :            0.33000 ps :
     Properties:                   Instantaneous       Averaged
       Kinetic energy    (eV) =       1.354221          1.354941
       Potential energy  (eV) =   -1540.894225      -1540.686841
       Total energy      (eV) =   -1539.540004      -1539.331900
       Temperature       (K)  =     299.334486        299.493689
       C/S temperature   (K)  =       0.866415          0.750025
       Pressure         (GPa) =      -0.310673          0.311610
       Cell parameter : a (A) =       9.217830          9.221775
       Cell parameter : b (A) =       9.216385          9.220856
       Cell parameter : c (A) =       9.219374          9.223120
       Cell angle : alpha (o) =      94.742412         94.742718
       Cell angle : beta  (o) =      94.751968         94.749165
       Cell angle : gamma (o) =      94.726386         94.733419
       Cell volume :   (A**3) =     774.720965        775.738828
  ** Time :            0.33500 ps :
     Properties:                   Instantaneous       Averaged
       Kinetic energy    (eV) =       1.357006          1.354972
       Potential energy  (eV) =   -1540.925987      -1540.690410
       Total energy      (eV) =   -1539.568981      -1539.335439
       Temperature       (K)  =     299.950244        299.500503
       C/S temperature   (K)  =       0.836965          0.751322
       Pressure         (GPa) =      -0.275471          0.302867
       Cell parameter : a (A) =       9.217630          9.221713
       Cell parameter : b (A) =       9.216395          9.220789
       Cell parameter : c (A) =       9.218983          9.223058
       Cell angle : alpha (o) =      94.739703         94.742673
       Cell angle : beta  (o) =      94.752318         94.749213
       Cell angle : gamma (o) =      94.730154         94.733371
       Cell volume :   (A**3) =     774.670552        775.722884
  ** Time :            0.34000 ps :
     Properties:                   Instantaneous       Averaged
       Kinetic energy    (eV) =       1.358002          1.355016
       Potential energy  (eV) =   -1541.085297      -1540.696217
       Total energy      (eV) =   -1539.727295      -1539.341201
       Temperature       (K)  =     300.170354        299.510354
       C/S temperature   (K)  =       0.898385          0.753485
       Pressure         (GPa) =      -0.158273          0.296103
       Cell parameter : a (A) =       9.217407          9.221650
       Cell parameter : b (A) =       9.216561          9.220727
       Cell parameter : c (A) =       9.218366          9.222989
       Cell angle : alpha (o) =      94.733082         94.742531
       Cell angle : beta  (o) =      94.747280         94.749184
       Cell angle : gamma (o) =      94.731459         94.733343
       Cell volume :   (A**3) =     774.626591        775.706762
  ** Time :            0.34500 ps :
     Properties:                   Instantaneous       Averaged
       Kinetic energy    (eV) =       1.357192          1.355048
       Potential energy  (eV) =   -1541.234520      -1540.704019
       Total energy      (eV) =   -1539.877328      -1539.348971
       Temperature       (K)  =     299.991201        299.517323
       C/S temperature   (K)  =       0.966758          0.756576
       Pressure         (GPa) =       0.210582          0.294863
       Cell parameter : a (A) =       9.217410          9.221589
       Cell parameter : b (A) =       9.216904          9.220671
       Cell parameter : c (A) =       9.217854          9.222915
       Cell angle : alpha (o) =      94.727477         94.742313
       Cell angle : beta  (o) =      94.740371         94.749056
       Cell angle : gamma (o) =      94.731071         94.733310
       Cell volume :   (A**3) =     774.628563        775.691136
  ** Time :            0.35000 ps :
     Properties:                   Instantaneous       Averaged
       Kinetic energy    (eV) =       1.354138          1.355035
       Potential energy  (eV) =   -1541.111350      -1540.709838
       Total energy      (eV) =   -1539.757212      -1539.354803
       Temperature       (K)  =     299.316295        299.514451
       C/S temperature   (K)  =       0.941889          0.759223
       Pressure         (GPa) =       0.507084          0.297869
       Cell parameter : a (A) =       9.217754          9.221534
       Cell parameter : b (A) =       9.217362          9.220624
       Cell parameter : c (A) =       9.217788          9.222842
       Cell angle : alpha (o) =      94.726571         94.742088
       Cell angle : beta  (o) =      94.736298         94.748874
       Cell angle : gamma (o) =      94.730648         94.733272
       Cell volume :   (A**3) =     774.697053        775.676935
  ** Time :            0.35500 ps :
     Properties:                   Instantaneous       Averaged
       Kinetic energy    (eV) =       1.355114          1.355036
       Potential energy  (eV) =   -1540.938482      -1540.713058
       Total energy      (eV) =   -1539.583368      -1539.358022
       Temperature       (K)  =     299.531875        299.514696
       C/S temperature   (K)  =       0.866595          0.760735
       Pressure         (GPa) =       0.429827          0.299693
       Cell parameter : a (A) =       9.218172          9.221486
       Cell parameter : b (A) =       9.217701          9.220583
       Cell parameter : c (A) =       9.218163          9.222776
       Cell angle : alpha (o) =      94.729775         94.741915
       Cell angle : beta  (o) =      94.736730         94.748703
       Cell angle : gamma (o) =      94.730435         94.733232
[...]
       C/S temperature   (K)  =       0.442632          0.561648
       Pressure         (GPa) =      -1.262545          0.000707
       Cell parameter : a (A) =       9.472084          9.183950
       Cell parameter : b (A) =       8.909573          9.186910
       Cell parameter : c (A) =       9.388667          9.292696
       Cell angle : alpha (o) =      95.192287         94.847141
       Cell angle : beta  (o) =      93.296981         94.826968
       Cell angle : gamma (o) =      95.695464         95.449131
       Cell volume :   (A**3) =     783.414398        772.650255
  ** Time :            0.91000 ps :
     Properties:                   Instantaneous       Averaged
       Kinetic energy    (eV) =       1.325548          1.359896
       Potential energy  (eV) =   -1528.927427      -1533.945684
       Total energy      (eV) =   -1527.601880      -1532.585788
       Temperature       (K)  =     292.996699        300.588889
       C/S temperature   (K)  =       0.491286          0.561261
       Pressure         (GPa) =      -1.226379         -0.006037
       Cell parameter : a (A) =       9.639071          9.186451
       Cell parameter : b (A) =       8.864624          9.185139
       Cell parameter : c (A) =       9.302647          9.292751
       Cell angle : alpha (o) =      94.648498         94.846049
       Cell angle : beta  (o) =      93.794354         94.821294
       Cell angle : gamma (o) =      96.713580         95.456079
       Cell volume :   (A**3) =     784.532458        772.715542
  ** Time :            0.91500 ps :
     Properties:                   Instantaneous       Averaged
       Kinetic energy    (eV) =       1.291370          1.359521
       Potential energy  (eV) =   -1531.366921      -1533.931592
       Total energy      (eV) =   -1530.075551      -1532.572071
       Temperature       (K)  =     285.442130        300.506119
       C/S temperature   (K)  =       0.510116          0.560982
       Pressure         (GPa) =      -0.469669         -0.008645
       Cell parameter : a (A) =       9.645344          9.188959
       Cell parameter : b (A) =       8.833409          9.183217
       Cell parameter : c (A) =       9.245019          9.292490
       Cell angle : alpha (o) =      94.508743         94.844206
       Cell angle : beta  (o) =      94.928045         94.821878
       Cell angle : gamma (o) =      97.480384         95.467140
       Cell volume :   (A**3) =     774.875292        772.727344
  ** Time :            0.92000 ps :
     Properties:                   Instantaneous       Averaged
       Kinetic energy    (eV) =       1.313522          1.359271
       Potential energy  (eV) =   -1535.765785      -1533.941561
       Total energy      (eV) =   -1534.452262      -1532.582289
       Temperature       (K)  =     290.338626        300.450861
       C/S temperature   (K)  =       0.614086          0.561270
       Pressure         (GPa) =       0.709798         -0.004892
       Cell parameter : a (A) =       9.496489          9.190630
       Cell parameter : b (A) =       8.819742          9.181242
       Cell parameter : c (A) =       9.261453          9.292321
       Cell angle : alpha (o) =      94.587728         94.842812
       Cell angle : beta  (o) =      96.145127         94.829069
       Cell angle : gamma (o) =      97.357302         95.477413
       Cell volume :   (A**3) =     761.439853        772.665999
  ** Time :            0.92500 ps :
     Properties:                   Instantaneous       Averaged
       Kinetic energy    (eV) =       1.408787          1.359539
       Potential energy  (eV) =   -1538.171379      -1533.964424
       Total energy      (eV) =   -1536.762592      -1532.604886
       Temperature       (K)  =     311.395764        300.510023
       C/S temperature   (K)  =       0.547431          0.561195
       Pressure         (GPa) =       1.681442          0.004177
       Cell parameter : a (A) =       9.271893          9.191069
       Cell parameter : b (A) =       8.865272          9.179534
       Cell parameter : c (A) =       9.339511          9.292576
       Cell angle : alpha (o) =      94.530780         94.841125
       Cell angle : beta  (o) =      96.797742         94.839711
       Cell angle : gamma (o) =      96.387385         95.482332
       Cell volume :   (A**3) =     754.247916        772.566442
  ** Time :            0.93000 ps :
     Properties:                   Instantaneous       Averaged
       Kinetic energy    (eV) =       1.413556          1.359829
       Potential energy  (eV) =   -1537.337938      -1533.982562
       Total energy      (eV) =   -1535.924381      -1532.622732
       Temperature       (K)  =     312.449959        300.574216
       C/S temperature   (K)  =       0.507759          0.560908
       Pressure         (GPa) =       1.037485          0.009699
       Cell parameter : a (A) =       9.076820          9.190455
       Cell parameter : b (A) =       9.023599          9.178696
       Cell parameter : c (A) =       9.418480          9.293253
       Cell angle : alpha (o) =      94.090745         94.837091
       Cell angle : beta  (o) =      96.579054         94.849062
       Cell angle : gamma (o) =      95.410981         95.481948
       Cell volume :   (A**3) =     760.295159        772.500467
  ** Time :            0.93500 ps :
     Properties:                   Instantaneous       Averaged
       Kinetic energy    (eV) =       1.390052          1.359991
       Potential energy  (eV) =   -1533.959793      -1533.982440
       Total energy      (eV) =   -1532.569741      -1532.622449
       Temperature       (K)  =     307.254634        300.609940
       C/S temperature   (K)  =       0.462107          0.560380
       Pressure         (GPa) =      -0.578895          0.006371
       Cell parameter : a (A) =       8.956250          9.189202
       Cell parameter : b (A) =       9.277182          9.179222
       Cell parameter : c (A) =       9.435509          9.294014
       Cell angle : alpha (o) =      93.519389         94.830045
       Cell angle : beta  (o) =      95.771299         94.853994
       Cell angle : gamma (o) =      95.232420         95.480614
       Cell volume :   (A**3) =     774.788449        772.512702
  ** Time :            0.94000 ps :
     Properties:                   Instantaneous       Averaged
       Kinetic energy    (eV) =       1.361916          1.360001
       Potential energy  (eV) =   -1530.144783      -1533.962027
       Total energy      (eV) =   -1528.782867      -1532.602026
       Temperature       (K)  =     301.035474        300.612204
       C/S temperature   (K)  =       0.443255          0.559757
       Pressure         (GPa) =      -1.414869         -0.001270
       Cell parameter : a (A) =       8.889584          9.187609
       Cell parameter : b (A) =       9.524579          9.181059
       Cell parameter : c (A) =       9.376643          9.294453
       Cell angle : alpha (o) =      93.393354         94.822403
       Cell angle : beta  (o) =      94.951982         94.854515
       Cell angle : gamma (o) =      95.923687         95.482971
       Cell volume :   (A**3) =     784.869388        772.578429
  ** Time :            0.94500 ps :
     Properties:                   Instantaneous       Averaged
       Kinetic energy    (eV) =       1.315335          1.359765
       Potential energy  (eV) =   -1529.357155      -1533.937662
       Total energy      (eV) =   -1528.041821      -1532.577898
       Temperature       (K)  =     290.739222        300.559966
       C/S temperature   (K)  =       0.501098          0.559446
       Pressure         (GPa) =      -1.124230         -0.007215
       Cell parameter : a (A) =       8.847170          9.185807
       Cell parameter : b (A) =       9.656870          9.183577
       Cell parameter : c (A) =       9.288768          9.294423
       Cell angle : alpha (o) =      94.028515         94.818202
       Cell angle : beta  (o) =      94.496454         94.852621
       Cell angle : gamma (o) =      96.951356         95.490740
       Cell volume :   (A**3) =     782.783054        772.632422
  ** Time :            0.95000 ps :
     Properties:                   Instantaneous       Averaged
       Kinetic energy    (eV) =       1.290847          1.359402
       Potential energy  (eV) =   -1532.578811      -1533.930511
       Total energy      (eV) =   -1531.287965      -1532.571109
       Temperature       (K)  =     285.326408        300.479789
       C/S temperature   (K)  =       0.510535          0.559189
       Pressure         (GPa) =      -0.159888         -0.008129
       Cell parameter : a (A) =       8.816542          9.183864
       Cell parameter : b (A) =       9.622432          9.185887
       Cell parameter : c (A) =       9.242107          9.294148
       Cell angle : alpha (o) =      95.210721         94.820268
       Cell angle : beta  (o) =      94.430815         94.850401
       Cell angle : gamma (o) =      97.545827         95.501556
       Cell volume :   (A**3) =     770.901854        772.623314
  ** Time :            0.95500 ps :
     Properties:                   Instantaneous       Averaged
       Kinetic energy    (eV) =       1.328261          1.359239
       Potential energy  (eV) =   -1536.774845      -1533.945402
       Total energy      (eV) =   -1535.446585      -1532.586163
       Temperature       (K)  =     293.596406        300.443751
       C/S temperature   (K)  =       0.614323          0.559478
       Pressure         (GPa) =       1.087300         -0.002532
       Cell parameter : a (A) =       8.812370          9.181919
       Cell parameter : b (A) =       9.447793          9.187258
       Cell parameter : c (A) =       9.273577          9.294040
       Cell angle : alpha (o) =      96.338805         94.828218
       Cell angle : beta  (o) =      94.517500         94.848658
       Cell angle : gamma (o) =      97.186904         95.510380
       Cell volume :   (A**3) =     757.982435        772.546660
  ** Time :            0.96000 ps :
     Properties:                   Instantaneous       Averaged
       Kinetic energy    (eV) =       1.429018          1.359602
       Potential energy  (eV) =   -1538.336645      -1533.968273
       Total energy      (eV) =   -1536.907627      -1532.608671
       Temperature       (K)  =     315.867512        300.524083
       C/S temperature   (K)  =       0.532818          0.559339
       Pressure         (GPa) =       1.705947          0.006354
       Cell parameter : a (A) =       8.884702          9.180371
       Cell parameter : b (A) =       9.225439          9.187457
       Cell parameter : c (A) =       9.358204          9.294375
       Cell angle : alpha (o) =      96.808232         94.838531
       Cell angle : beta  (o) =      94.393628         94.846288
       Cell angle : gamma (o) =      96.129926         95.513607
       Cell volume :   (A**3) =     754.182288        772.451012
  ** Time :            0.96500 ps :
     Properties:                   Instantaneous       Averaged
       Kinetic energy    (eV) =       1.405737          1.359841
       Potential energy  (eV) =   -1536.766441      -1533.982772
       Total energy      (eV) =   -1535.360704      -1532.622930
       Temperature       (K)  =     310.721646        300.576920
       C/S temperature   (K)  =       0.498391          0.559023
       Pressure         (GPa) =       0.583919          0.009268
       Cell parameter : a (A) =       9.074546          9.179823
       Cell parameter : b (A) =       9.050408          9.186747
       Cell parameter : c (A) =       9.427941          9.295067
       Cell angle : alpha (o) =      96.437484         94.846816
       Cell angle : beta  (o) =      93.907450         94.841423
       Cell angle : gamma (o) =      95.299476         95.512497
       Cell volume :   (A**3) =     763.715194        772.405749
  ** Time :            0.97000 ps :
     Properties:                   Instantaneous       Averaged
       Kinetic energy    (eV) =       1.385794          1.359975
       Potential energy  (eV) =   -1532.940526      -1533.977399
       Total energy      (eV) =   -1531.554732      -1532.617424
       Temperature       (K)  =     306.313449        300.606489
       C/S temperature   (K)  =       0.458477          0.558505
       Pressure         (GPa) =      -0.940358          0.004200
       Cell parameter : a (A) =       9.337677          9.180636
       Cell parameter : b (A) =       8.945832          9.185505
       Cell parameter : c (A) =       9.425647          9.295740
       Cell angle : alpha (o) =      95.616991         94.850786
       Cell angle : beta  (o) =      93.430669         94.834151
       Cell angle : gamma (o) =      95.349535         95.511657
       Cell volume :   (A**3) =     778.269825        772.435976
  ** Time :            0.97500 ps :
     Properties:                   Instantaneous       Averaged
       Kinetic energy    (eV) =       1.351991          1.359934
       Potential energy  (eV) =   -1529.496858      -1533.954422
       Total energy      (eV) =   -1528.144867      -1532.594488
       Temperature       (K)  =     298.841749        300.597440
       C/S temperature   (K)  =       0.463547          0.558018
       Pressure         (GPa) =      -1.397589         -0.003026
       Cell parameter : a (A) =       9.563375          9.182599
       Cell parameter : b (A) =       8.885202          9.183965
       Cell parameter : c (A) =       9.353235          9.296035
       Cell angle : alpha (o) =      94.900293         94.851040
       Cell angle : beta  (o) =      93.513809         94.827380
       Cell angle : gamma (o) =      96.178178         95.515075
       Cell volume :   (A**3) =     785.268396        772.501783
  ** Time :            0.98000 ps :
     Properties:                   Instantaneous       Averaged
       Kinetic energy    (eV) =       1.305037          1.359654
       Potential energy  (eV) =   -1529.722382      -1533.932830
       Total energy      (eV) =   -1528.417345      -1532.573176
       Temperature       (K)  =     288.463093        300.535530
       C/S temperature   (K)  =       0.506071          0.557753
       Pressure         (GPa) =      -0.864220         -0.007439
       Cell parameter : a (A) =       9.655638          9.185013
       Cell parameter : b (A) =       8.844865          9.182235
       Cell parameter : c (A) =       9.270365          9.295904
       Cell angle : alpha (o) =      94.568973         94.849600
       Cell angle : beta  (o) =      94.336733         94.824877
       Cell angle : gamma (o) =      97.161801         95.523477
       Cell volume :   (A**3) =     780.107267        772.540587
  ** Time :            0.98500 ps :
     Properties:                   Instantaneous       Averaged
       Kinetic energy    (eV) =       1.292992          1.359316
       Potential energy  (eV) =   -1533.578047      -1533.931029
       Total energy      (eV) =   -1532.285054      -1532.571713
       Temperature       (K)  =     285.800749        300.460734
       C/S temperature   (K)  =       0.567744          0.557803
       Pressure         (GPa) =       0.138960         -0.006818
       Cell parameter : a (A) =       9.582864          9.187032
       Cell parameter : b (A) =       8.818820          9.180390
       Cell parameter : c (A) =       9.244596          9.295643
       Cell angle : alpha (o) =      94.574568         94.848204
       Cell angle : beta  (o) =      95.558588         94.828601
       Cell angle : gamma (o) =      97.542957         95.533728
       Cell volume :   (A**3) =     767.461463        772.514805
  ** Time :            0.99000 ps :
     Properties:                   Instantaneous       Averaged
       Kinetic energy    (eV) =       1.349994          1.359269
       Potential energy  (eV) =   -1537.430023      -1533.948701
       Total energy      (eV) =   -1536.080028      -1532.589432
       Temperature       (K)  =     298.400352        300.450328
       C/S temperature   (K)  =       0.612116          0.558078
       Pressure         (GPa) =       1.275302         -0.000443
       Cell parameter : a (A) =       9.388052          9.188047
       Cell parameter : b (A) =       8.828251          9.178611
       Cell parameter : c (A) =       9.296452          9.295647
       Cell angle : alpha (o) =      94.638518         94.847145
       Cell angle : beta  (o) =      96.542754         94.837259
       Cell angle : gamma (o) =      96.952968         95.540896
       Cell volume :   (A**3) =     756.334553        772.433086
  ** Time :            0.99500 ps :
     Properties:                   Instantaneous       Averaged
       Kinetic energy    (eV) =       1.434861          1.359649
       Potential energy  (eV) =   -1538.225375      -1533.970192
       Total energy      (eV) =   -1536.790514      -1532.610543
       Temperature       (K)  =     317.159044        300.534291
       C/S temperature   (K)  =       0.518200          0.557877
       Pressure         (GPa) =       1.522958          0.007212
       Cell parameter : a (A) =       9.169778          9.187956
       Cell parameter : b (A) =       8.925618          9.177340
       Cell parameter : c (A) =       9.384707          9.296095
       Cell angle : alpha (o) =      94.413578         94.844967
       Cell angle : beta  (o) =      96.767848         94.846960
       Cell angle : gamma (o) =      95.863488         95.542517
       Cell volume :   (A**3) =     755.671902        772.348859
  ** Time :            1.00000 ps :
     Properties:                   Instantaneous       Averaged
       Kinetic energy    (eV) =       1.399646          1.359849
       Potential energy  (eV) =   -1536.036064      -1533.980521
       Total energy      (eV) =   -1534.636418      -1532.620672
       Temperature       (K)  =     309.375210        300.578496
       C/S temperature   (K)  =       0.481977          0.557498
       Pressure         (GPa) =       0.203090          0.008086
       Cell parameter : a (A) =       9.010269          9.187067
       Cell parameter : b (A) =       9.137080          9.177139
       Cell parameter : c (A) =       9.438848          9.296809
       Cell angle : alpha (o) =      93.863020         94.840057
       Cell angle : beta  (o) =      96.210259         94.853777
       Cell angle : gamma (o) =      95.225373         95.540931
       Cell volume :   (A**3) =     766.962532        772.321927

  Peak dynamic memory used =       2.09 MB 


  Timing analysis for GULP :

--------------------------------------------------------------------------------
  Task / Subroutine                                          Time (Seconds)
--------------------------------------------------------------------------------
  Calculation of reciprocal space energy and derivatives          6.9392
  Calculation of real space energy and derivatives              122.6262
  Calculation of three-body energy and derivatives                0.1414
  Calculation of matrix inversion                                 0.0016
  Symmetry generation of equivalent positions                     0.0004
  Molecular dynamics - update of geometry                         0.0571
  Molecular dynamics - predictor                                  0.0004
  Molecular dynamics - corrector                                  0.0662
  Molecular dynamics - velocity correction                        0.0213
  Global summation overhead                                       0.0005
--------------------------------------------------------------------------------
  Total CPU time                                                130.7977
--------------------------------------------------------------------------------


  Dump file written as example19.grs


  Job Finished at 12:10.19 25th August     2022                               

