********************************************************************************
*                       GENERAL UTILITY LATTICE PROGRAM                        *
*                                 Julian Gale                                  *
*                       Curtin Institute for Computation                       *
*                    School of Molecular and Life Sciences                     *
*                    Curtin University, Western Australia                      *
********************************************************************************
* Version = 6.1.0 * Last modified =  25th August 2022                          *
********************************************************************************
*  optimise     - perform optimisation run                                     *
*  conp         - constant pressure calculation                                *
*  gfnff        - use the GFNFF of Spicher and Grimme                          *
*  gwolf        - apply a Wolf sum to the topological charges in GFNFF         *
*  property     - calculate properties for final geometry                      *
*  phonon       - calculate phonons for final geometry                         *
*  nomodcoord   - do not mod input coordinates                                 *
*  compare      - compare initial and final structures                         *
********************************************************************************

  Job Started  at 12:16.02 25th August     2022                               

  Number of CPUs =     1


  Total number of configurations input =      1


!!!!!!!!!!!!!!!!!!!!!!!!!!!!!!!!!!!!!!!!!!!!!!!!!!!!!!!!!!!!!!!!!!!!!!!!!!!!!!!!
!! WARNING : Breaking symmetry due to perfect biradical
!!!!!!!!!!!!!!!!!!!!!!!!!!!!!!!!!!!!!!!!!!!!!!!!!!!!!!!!!!!!!!!!!!!!!!!!!!!!!!!!


********************************************************************************
*  Input for Configuration =   1                                               *
********************************************************************************

  Formula = Zn8C48O26H24                                                

  Number of irreducible atoms/shells =       7


  Total number atoms/shells =     106

  Dimensionality = 3               :  Bulk   


  Symmetry :

  Crystal family                   :  Cubic       
  Crystal class  (Groth - 1921)    :  Cubic Hexakisoctahedral              

  Space group (centrosymmetric)    :  F M -3 M        

  Patterson group                  :  F m -3 m 

  Cartesian lattice vectors (Angstroms) :

        0.000000   12.927800   12.927800
       12.927800    0.000000   12.927800
       12.927800   12.927800    0.000000

  Primitive cell parameters :            Full cell parameters :

  a =  18.2827    alpha =  60.0000       a =  25.8556    alpha =  90.0000
  b =  18.2827    beta  =  60.0000       b =  25.8556    beta  =  90.0000
  c =  18.2827    gamma =  60.0000       c =  25.8556    gamma =  90.0000

  Initial volumes (Angstroms**3):

  Primitive cell =        4321.195049    Full cell =       17284.780195

  Temperature of configuration =   0.00     K 

  Pressure of configuration =         0.000 GPa 

  Fractional coordinates of asymmetric unit :

--------------------------------------------------------------------------------
   No.  Atomic       x           y          z         Charge      Occupancy
        Label      (Frac)      (Frac)     (Frac)        (e)         (Frac)  
--------------------------------------------------------------------------------
      1 Zn    c    0.293477 *  0.293477    0.293477     0.00000    1.000000    
      2 C     c    0.111460 *  0.250000    0.250000     0.00000    1.000000    
      3 C     c    0.053860 *  0.250000    0.250000     0.00000    1.000000    
      4 C     c    0.217510 *  0.217510    0.473430 *   0.00000    1.000000    
      5 O     c    0.250000    0.250000    0.250000     0.00000    1.000000    
      6 O     c    0.219370 *  0.219370    0.366110 *   0.00000    1.000000    
      7 H     c    0.195600 *  0.195600    0.455200 *   0.00000    1.000000    
--------------------------------------------------------------------------------


  Constraints : 

--------------------------------------------------------------------------------
  Constraint no.      Unconstrained     Constrained    Coefficient    Offset
                         Variable         Variable
--------------------------------------------------------------------------------
           1              Strain 1        Strain 2       1.00000      0.0000
           2              Strain 1        Strain 3       1.00000      0.0000
           3                 1 x             1 y         1.00000      0.0000
           4                 1 x             1 z         1.00000      0.0000
           5                 4 x             4 y         1.00000      0.0000
           6                 6 x             6 y         1.00000      0.0000
           7                 7 x             7 y         1.00000      0.0000
--------------------------------------------------------------------------------

  Brillouin zone sampling points :

--------------------------------------------------------------------------------
  Point number          x          y          z            Weight
--------------------------------------------------------------------------------
        1           0.000000   0.000000   0.000000     1.00000000
--------------------------------------------------------------------------------


********************************************************************************
*  General input information                                                   *
********************************************************************************

  Species output for all configurations : 

--------------------------------------------------------------------------------
  Species    Type    Atomic    Atomic    Charge       Radii (Angs)     Library
                     Number     Mass       (e)     Cova   Ionic  VDW   Symbol
--------------------------------------------------------------------------------
    Zn       Core       30      65.39   0.000000   1.450  0.000  2.160          
    C        Core        6      12.01   0.000000   0.770  0.000  1.530          
    O        Core        8      16.00   0.000000   0.730  0.000  1.360          
    H        Core        1       1.01   0.000000   0.370  0.000  1.080          
--------------------------------------------------------------------------------


  Lattice summation method               =    Ewald          (3-D)
                                         =    Parry          (2-D)
                                         =    Saunders et al (1-D)
  Accuracy factor for lattice sums       =   12.000


  Analytic derivatives to be used

  Time limit = Infinity

  Maximum range for interatomic potentials =    100000.000000 Angstroms

  pGFNFF forcefield to be used

  pGFNFF parameter charges will use new PBC-consistent topology 
  pGFNFF maximum number of shells for topology - loop 0   =    2
  pGFNFF maximum number of shells for topology - loop > 0 =    4
  pGFNFF fragments to be set based on original neighbour list
  pGFNFF topological large distance = 10**12 
  pGFNFF topological distances scaled by =  1.17500
  pGFNFF topological distance  cutoff    = 12.00000 a.u.
  pGFNFF topological charges to be computed with a Wolf sum with eta =  0.20000
  pGFNFF minimum allowed charge in topology set =      -2.0000
  pGFNFF dispersion-coordination number tolerance =    10.0000
  pGFNFF high coordination numbers will NOT be trapped
  pGFNFF pi biradicals modified based on charge of atoms
  pGFNFF accuracy       =     0.100000
  pGFNFF accuracy_disp  =     0.100000
  pGFNFF accuracy_rep   =     0.100000
  pGFNFF accuracy_cn    =     0.100000
  pGFNFF accuracy_hb1   =     0.100000
  pGFNFF accuracy_hb2   =     0.100000
  pGFNFF taper          =     0.950000
  pGFNFF temperature 1  =  4000.000000 K
  pGFNFF temperature 2  =   300.000000 K
  pGFNFF kspace         =     0.040000 1/Ang
  pGFNFF ATM dispersion =   damped 

  GFNFF topology will exclude bonds between the following atom types : 

   Zn    Core   - Zn    Core



********************************************************************************
*  Output for configuration   1                                                *
********************************************************************************


  Components of energy : 

--------------------------------------------------------------------------------
  Interatomic potentials     =           0.00000000 eV    
  GFNFF force field          =        -537.08447029 eV    
  Monopole - monopole (real) =         -30.80987827 eV    
  Monopole - monopole (recip)=          -7.76700376 eV    
  Monopole - monopole (total)=         -38.57688203 eV    
  GFNFF Coulomb correction   =           0.34059303 eV    
--------------------------------------------------------------------------------
  Total lattice energy : 
    Primitive unit cell      =        -575.32075929 eV    
    Non-primitive unit cell  =       -2301.28303715 eV    
--------------------------------------------------------------------------------
  Total lattice energy (in kJmol-1): 
    Primitive unit cell      =          -55509.6587 kJ/(mole unit cells)
    Non-primitive unit cell  =         -222038.6348 kJ/(mole unit cells)
--------------------------------------------------------------------------------


  Number of variables =       10

  Maximum number of calculations  =          1000
  Maximum Hessian update interval =            10
  Maximum step size               =   1.000000000
  Maximum parameter tolerance     =   0.000010000
  Maximum function  tolerance     =   0.000010000
  Maximum gradient  tolerance     =   0.001000000
  Maximum gradient  component     =   0.010000000

  Symmetry constrained optimisation

  Cell parameters to be optimised using strains

  Newton-Raphson optimiser to be used

  BFGS hessian update to be used

  Lower half triangular hessian to be used

  Start of bulk optimisation :

  Cycle:      0 Energy:      -575.320759  Gnorm:    868.193869  CPU:    0.439
  ** Hessian calculated **
  Cycle:      1 Energy:      -587.857845  Gnorm:    119.547083  CPU:    0.679
  ** Hessian calculated **
  Cycle:      2 Energy:      -588.503528  Gnorm:      2.938015  CPU:    1.276
  Cycle:      3 Energy:      -588.506055  Gnorm:      0.482431  CPU:    1.479
  Cycle:      4 Energy:      -588.506075  Gnorm:      0.025734  CPU:    1.683
  Cycle:      5 Energy:      -588.506075  Gnorm:      0.003171  CPU:    1.887


  **** Optimisation achieved ****


  Final energy =    -588.50607524 eV      
  Final Gnorm  =       0.00025002

  Components of energy : 

--------------------------------------------------------------------------------
  Interatomic potentials     =           0.00000000 eV    
  GFNFF force field          =        -553.01120837 eV    
  Monopole - monopole (real) =         -28.34448130 eV    
  Monopole - monopole (recip)=          -7.37272639 eV    
  Monopole - monopole (total)=         -35.71720769 eV    
  GFNFF Coulomb correction   =           0.22234082 eV    
--------------------------------------------------------------------------------
  Total lattice energy : 
    Primitive unit cell      =        -588.50607524 eV    
    Non-primitive unit cell  =       -2354.02430095 eV    
--------------------------------------------------------------------------------
  Total lattice energy (in kJmol-1): 
    Primitive unit cell      =          -56781.8401 kJ/(mole unit cells)
    Non-primitive unit cell  =         -227127.3605 kJ/(mole unit cells)
--------------------------------------------------------------------------------

  Final asymmetric unit coordinates :

--------------------------------------------------------------------------------
   No.  Atomic        x           y           z         Radius
        Label       (Frac)      (Frac)      (Frac)       (Angs) 
--------------------------------------------------------------------------------
     1  Zn    c     0.296039    0.296039    0.296039    0.000000
     2  C     c     0.110332    0.250000    0.250000    0.000000
     3  C     c     0.053583    0.250000    0.250000    0.000000
     4  C     c     0.217406    0.217406    0.473513    0.000000
     5  O     c     0.250000    0.250000    0.250000    0.000000
     6  O     c     0.218633    0.218633    0.366234    0.000000
     7  H     c     0.192232    0.192232    0.452131    0.000000
--------------------------------------------------------------------------------

  Final Cartesian lattice vectors (Angstroms) :

        0.000000   12.975896   12.975896
       12.975896    0.000000   12.975896
       12.975896   12.975896    0.000000


  Final cell parameters and derivatives :

--------------------------------------------------------------------------------
       a           18.350689 Angstrom     dE/de1(xx)    -0.000040 eV/strain
       b           18.350689 Angstrom     dE/de2(yy)     0.000000 eV/strain
       c           18.350689 Angstrom     dE/de3(zz)     0.000000 eV/strain
       alpha       60.000000 Degrees      dE/de4(yz)     0.000000 eV/strain
       beta        60.000000 Degrees      dE/de5(xz)     0.000000 eV/strain
       gamma       60.000000 Degrees      dE/de6(xy)     0.000000 eV/strain
--------------------------------------------------------------------------------

  Primitive cell volume =          4369.604305 Angs**3

  Density of cell =      0.585180 g/cm**3

  Non-primitive lattice parameters :

  a    =    25.951793  b   =    25.951793  c    =    25.951793
  alpha=    90.000000  beta=    90.000000  gamma=    90.000000

  Non-primitive cell volume =         17478.417220 Angs**3


  Final internal derivatives :

--------------------------------------------------------------------------------
   No.  Atomic          a             b             c           Radius
        Label          (eV)          (eV)          (eV)        (eV/Angs)
--------------------------------------------------------------------------------
      1 Zn    c       0.000255      0.000000      0.000000      0.000000
      2 C     c      -0.000038      0.000000      0.000000      0.000000
      3 C     c      -0.000026      0.000000      0.000000      0.000000
      4 C     c       0.001800      0.000000      0.000647      0.000000
      5 O     c       0.000000      0.000000      0.000000      0.000000
      6 O     c       0.000715      0.000000      0.000171      0.000000
      7 H     c      -0.001295      0.000000     -0.000554      0.000000
--------------------------------------------------------------------------------
  Maximum abs         0.001800      0.000000      0.000647      0.000000
--------------------------------------------------------------------------------


  Comparison of initial and final structures : 

--------------------------------------------------------------------------------
  Parameter   Initial value   Final value   Difference    Units      Percent
--------------------------------------------------------------------------------
    Volume     17284.780195  17478.417220   193.637025    Angs**3      1.12
    a             25.855600     25.951793     0.096193    Angstroms    0.37
    b             25.855600     25.951793     0.096193    Angstroms    0.37
    c             25.855600     25.951793     0.096193    Angstroms    0.37
    alpha         90.000000     90.000000     0.000000    Degrees      0.00
    beta          90.000000     90.000000     0.000000    Degrees      0.00
    gamma         90.000000     90.000000     0.000000    Degrees      0.00
      1 x          0.293477      0.296039     0.002562    Fractional   0.87
      1 y          0.293477      0.296039     0.002562    Fractional   0.87
      1 z          0.293477      0.296039     0.002562    Fractional   0.87
      2 x          0.111460      0.110332     0.001128    Fractional   1.01
      2 y          0.250000      0.250000     0.000000    Fractional   0.00
      2 z          0.250000      0.250000     0.000000    Fractional   0.00
      3 x          0.053860      0.053583     0.000277    Fractional   0.51
      3 y          0.250000      0.250000     0.000000    Fractional   0.00
      3 z          0.250000      0.250000     0.000000    Fractional   0.00
      4 x          0.217510      0.217406     0.000104    Fractional   0.05
      4 y          0.217510      0.217406     0.000104    Fractional   0.05
      4 z          0.473430      0.473513     0.000083    Fractional   0.02
      5 x          0.250000      0.250000     0.000000    Fractional   0.00
      5 y          0.250000      0.250000     0.000000    Fractional   0.00
      5 z          0.250000      0.250000     0.000000    Fractional   0.00
      6 x          0.219370      0.218633     0.000737    Fractional   0.34
      6 y          0.219370      0.218633     0.000737    Fractional   0.34
      6 z          0.366110      0.366234     0.000124    Fractional   0.03
      7 x          0.195600      0.192232     0.003368    Fractional   1.72
      7 y          0.195600      0.192232     0.003368    Fractional   1.72
      7 z          0.455200      0.452131     0.003069    Fractional   0.67
--------------------------------------------------------------------------------


  Born effective charge tensors : 

-------------------------------------------------------------------------------
  Atom             x           y             z
-------------------------------------------------------------------------------
    1 Zn    x       0.3541      0.0000      0.0000
            y       0.0000      0.3541      0.0000
            z       0.0000      0.0000      0.3541
-------------------------------------------------------------------------------
    2 C     x       0.3165      0.0000      0.0000
            y       0.0000      0.3165      0.0000
            z       0.0000      0.0000      0.3165
-------------------------------------------------------------------------------
    3 C     x       0.0103      0.0000      0.0000
            y       0.0000      0.0103      0.0000
            z       0.0000      0.0000      0.0103
-------------------------------------------------------------------------------
    4 C     x      -0.0183      0.0000      0.0000
            y       0.0000     -0.0183      0.0000
            z       0.0000      0.0000     -0.0183
-------------------------------------------------------------------------------
    5 O     x      -0.1822      0.0000      0.0000
            y       0.0000     -0.1822      0.0000
            z       0.0000      0.0000     -0.1822
-------------------------------------------------------------------------------
    6 O     x      -0.3608      0.0000      0.0000
            y       0.0000     -0.3608      0.0000
            z       0.0000      0.0000     -0.3608
-------------------------------------------------------------------------------
    7 H     x       0.1129      0.0000      0.0000
            y       0.0000      0.1129      0.0000
            z       0.0000      0.0000      0.1129
-------------------------------------------------------------------------------




  Elastic Constant Matrix: (Units=GPa)

-------------------------------------------------------------------------------
  Indices      1         2         3         4         5         6    
-------------------------------------------------------------------------------
       1     11.5581    7.0049    7.0049   -0.0000   -0.0000   -0.0000
       2      7.0049   11.5581    7.0049   -0.0000   -0.0000   -0.0000
       3      7.0049    7.0049   11.5581   -0.0000   -0.0000   -0.0000
       4     -0.0000   -0.0000   -0.0000    0.4248   -0.0000    0.0000
       5     -0.0000   -0.0000   -0.0000   -0.0000    0.4248    0.0000
       6     -0.0000   -0.0000   -0.0000    0.0000    0.0000    0.4248
-------------------------------------------------------------------------------


  Elastic Compliance Matrix: (Units=1/GPa)

-------------------------------------------------------------------------------
  Indices      1         2         3         4         5         6    
-------------------------------------------------------------------------------
       1    0.159456 -0.060172 -0.060172 -0.000000 -0.000000 -0.000000
       2   -0.060172  0.159456 -0.060172  0.000000  0.000000  0.000000
       3   -0.060172 -0.060172  0.159456  0.000000  0.000000  0.000000
       4   -0.000000  0.000000  0.000000  2.354204  0.000000 -0.000000
       5    0.000000  0.000000  0.000000  0.000000  2.354204 -0.000000
       6   -0.000000 -0.000000  0.000000 -0.000000 -0.000000  2.354204
-------------------------------------------------------------------------------

  Mechanical properties :

-------------------------------------------------------------------------------
  Convention :                    Reuss         Voigt         Hill
-------------------------------------------------------------------------------
  Bulk  Modulus (GPa)     =       8.52264       8.52264       8.52264
  Shear Modulus (GPa)     =       0.62963       1.16549       0.89756
-------------------------------------------------------------------------------
  Velocity S-wave (km/s)  =       1.03729       1.41127       1.23848
  Velocity P-wave (km/s)  =       3.99985       4.14966       4.07544
-------------------------------------------------------------------------------
  Compressibility (1/GPa) =    0.11733447
-------------------------------------------------------------------------------
  Stress axis :                     x             y             z
-------------------------------------------------------------------------------
  Youngs Moduli (GPa)     =       6.27132       6.27132       6.27132
-------------------------------------------------------------------------------
  Poissons Ratio (x)      =                     0.37736       0.37736
  Poissons Ratio (y)      =       0.37736                     0.37736
  Poissons Ratio (z)      =       0.37736       0.37736
-------------------------------------------------------------------------------


  Piezoelectric Strain Matrix: (Units=C/m**2)

-------------------------------------------------------------------------------
  Indices      1         2         3         4         5         6    
-------------------------------------------------------------------------------
       x    -0.00000   0.00000  -0.00000   0.00000  -0.00000   0.00000
       y     0.00000   0.00000   0.00000   0.00000  -0.00000   0.00000
       z     0.00000   0.00000  -0.00000  -0.00000   0.00000  -0.00000
-------------------------------------------------------------------------------


  Piezoelectric Stress Matrix: (Units=10**-11 C/N)

-------------------------------------------------------------------------------
  Indices      1         2         3         4         5         6    
-------------------------------------------------------------------------------
       x    -0.00000   0.00000  -0.00000   0.00000  -0.00000   0.00000
       y     0.00000  -0.00000   0.00000   0.00000  -0.00000   0.00000
       z     0.00000   0.00000  -0.00000  -0.00000   0.00000  -0.00000
-------------------------------------------------------------------------------


  Static dielectric constant tensor : 

-------------------------------------------------------------------------------
              x         y         z
-------------------------------------------------------------------------------
       x     1.04830   0.00000   0.00000
       y     0.00000   1.04830  -0.00000
       z     0.00000  -0.00000   1.04830
--------------------------------------------------------------------------------

  Static refractive indices : 

-------------------------------------------------------------------------------
    1 =    1.02387      2 =    1.02387      3 =    1.02387
-------------------------------------------------------------------------------


  Phonon Calculation : 

  Number of k points for this configuration =        1

--------------------------------------------------------------------------------
  K point      1 =   0.000000  0.000000  0.000000  Weight =    1.000
--------------------------------------------------------------------------------

  Frequencies (cm-1) [NB: Negative implies an imaginary mode]:

   -0.01   -0.01   -0.01   16.06   16.06   16.06   29.61   29.61   29.61
   30.30   31.97   31.97   31.97   33.89   33.89   37.48   37.48   40.35
   40.35   40.35   46.89   46.89   46.89   47.96   47.96   47.96   52.68
   52.68   52.68   70.43   70.43   70.43   80.07   80.07   80.07   88.56
   88.56   88.56   89.35   89.35   89.35   89.76   90.81   94.71   94.71
   94.71   96.52   96.52   96.52  101.07  101.07  114.46  114.46  114.46
  121.53  121.53  131.38  131.38  131.38  133.75  135.68  135.68  135.68
  144.88  144.88  144.88  147.73  147.73  149.60  149.60  149.60  191.22
  191.22  191.22  193.13  211.91  211.91  213.47  217.53  217.53  217.53
  217.72  217.72  217.72  248.50  248.50  248.50  253.54  253.54  253.54
  289.29  289.29  289.29  298.91  298.91  298.91  300.24  300.24  300.24
  304.21  304.21  304.21  343.40  345.65  345.65  345.65  346.75  346.75
  387.75  387.87  387.87  387.87  387.93  387.93  412.23  412.23  412.23
  413.25  413.25  413.25  439.99  439.99  440.63  440.63  440.63  442.02
  453.43  453.43  453.43  453.99  453.99  453.99  477.06  477.06  477.06
  477.34  477.34  477.34  554.52  554.52  554.52  556.16  556.16  556.16
  559.62  559.62  560.34  560.34  560.34  561.88  575.87  575.87  575.87
  576.76  576.76  576.76  576.85  576.85  576.85  579.89  579.89  579.89
  639.66  639.66  639.66  640.78  640.78  640.78  654.33  654.33  654.80
  654.80  654.80  655.69  669.67  670.11  670.11  670.11  670.53  670.53
  714.24  714.24  714.24  714.61  714.61  714.61  772.08  772.08  772.15
  772.15  772.15  772.31  784.69  784.85  784.85  784.85  784.91  784.91
  809.35  809.35  809.35  809.42  809.42  809.42  934.73  934.73  934.75
  934.75  934.75  934.80 1054.26 1054.26 1054.34 1054.34 1054.34 1054.53
 1062.57 1062.57 1062.61 1062.61 1062.61 1062.67 1104.00 1104.00 1104.00
 1104.10 1104.10 1104.10 1157.76 1157.76 1157.81 1157.81 1157.81 1157.94
 1277.19 1277.19 1277.19 1277.34 1277.34 1277.34 1294.05 1294.05 1294.12
 1294.12 1294.12 1294.24 1308.90 1308.90 1308.93 1308.93 1308.93 1308.99
 1372.58 1372.58 1372.58 1372.64 1372.64 1372.64 1509.96 1509.96 1509.99
 1509.99 1509.99 1510.04 1519.60 1519.60 1519.60 1519.61 1519.61 1519.61
 1552.81 1552.81 1552.81 1552.82 1552.82 1552.82 1589.13 1589.13 1589.13
 1589.17 1589.17 1589.17 1610.86 1610.86 1610.86 1610.87 1610.87 1610.87
 1654.05 1654.05 1654.05 1654.05 1654.05 1654.07 3149.08 3149.08 3149.14
 3149.14 3149.14 3149.26 3150.77 3150.77 3150.77 3150.89 3150.89 3150.89
 3154.43 3154.43 3154.43 3154.50 3154.50 3154.60 3154.60 3154.60 3154.70
 3154.70 3154.70 3155.24


--------------------------------------------------------------------------------
  Phonon properties (per mole of unit cells): Temperature =      0.000 K
--------------------------------------------------------------------------------
  Zero point energy             =       16.619166 eV
--------------------------------------------------------------------------------

  Time to end of optimisation =       3.1606 seconds


  Peak dynamic memory used =       5.79 MB 


  Timing analysis for GULP :

--------------------------------------------------------------------------------
  Task / Subroutine                                          Time (Seconds)
--------------------------------------------------------------------------------
  Calculation of reciprocal space energy and derivatives          0.3560
  Calculation of real space energy and derivatives                0.9084
  Calculation of real space energy using symmetry                 0.1442
  Generation of GFNFF parameters                                  0.0354
  Calculation of GFNFF energy and derivatives                     1.6657
  Calculation of phonons                                          0.3398
  Calculation and manipulation of Hessian matrix                  0.0019
  Calculation of matrix diagonalisation                           0.0182
  Electronegativity equalisation                                  0.6957
  Calculation of variable charge 2nd derivatives                  0.2553
  Symmetry generation of equivalent positions                     0.0015
--------------------------------------------------------------------------------
  Total CPU time                                                  3.1606
--------------------------------------------------------------------------------


  Job Finished at 12:16.05 25th August     2022                               

