********************************************************************************
*                       GENERAL UTILITY LATTICE PROGRAM                        *
*                                 Julian Gale                                  *
*                       Curtin Institute for Computation                       *
*                    School of Molecular and Life Sciences                     *
*                    Curtin University, Western Australia                      *
********************************************************************************
* Version = 6.1.0 * Last modified =  25th August 2022                          *
********************************************************************************
*  optimise     - perform optimisation run                                     *
*  conp         - constant pressure calculation                                *
*  property     - calculate properties for final geometry                      *
*  phonon       - calculate phonons for final geometry                         *
*  compare      - compare initial and final structures                         *
********************************************************************************

  Job Started  at 12:15.59 25th August     2022                               

  Number of CPUs =     1


  Total number of configurations input =      1

********************************************************************************
*  Input for Configuration =   1                                               *
********************************************************************************

  Formula = Si3O6                                                       

  Number of irreducible atoms/shells =       2


  Total number atoms/shells =       9

  Dimensionality = 3               :  Bulk   


  Symmetry :

  Crystal family                   :  Hexagonal   
  Crystal class  (Groth - 1921)    :  Trigonal Trapezohedral               

  Space group (noncentrosymmetric) :  P 31 2 1        

  Patterson group                  :  P -3 m 1 

  Cartesian lattice vectors (Angstroms) :

        4.913000    0.000000    0.000000
       -2.456500    4.254783    0.000000
        0.000000    0.000000    5.405200

  Cell parameters (Angstroms/Degrees):

  a =       4.9130    alpha =  90.0000
  b =       4.9130    beta  =  90.0000
  c =       5.4052    gamma = 120.0000

  Initial cell volume =         112.988938 Angs**3

  Temperature of configuration =   0.00     K 

  Pressure of configuration =         0.000 GPa 

  Fractional coordinates of asymmetric unit :

--------------------------------------------------------------------------------
   No.  Atomic       x           y          z         Charge      Occupancy
        Label      (Frac)      (Frac)     (Frac)        (e)         (Frac)  
--------------------------------------------------------------------------------
      1 Si    c    0.470100 *  0.000000    0.333333     0.00000    1.000000    
      2 O     c    0.413600 *  0.267600 *  0.214100 *   0.00000    1.000000    
--------------------------------------------------------------------------------


  Constraints : 

--------------------------------------------------------------------------------
  Constraint no.      Unconstrained     Constrained    Coefficient    Offset
                         Variable         Variable
--------------------------------------------------------------------------------
           1              Strain 1        Strain 2       1.00000      0.0000
--------------------------------------------------------------------------------

  Brillouin zone sampling points :

--------------------------------------------------------------------------------
  Point number          x          y          z            Weight
--------------------------------------------------------------------------------
        1           0.000000   0.000000   0.000000     1.00000000
--------------------------------------------------------------------------------


********************************************************************************
*  General input information                                                   *
********************************************************************************

  Species output for all configurations : 

--------------------------------------------------------------------------------
  Species    Type    Atomic    Atomic    Charge       Radii (Angs)     Library
                     Number     Mass       (e)     Cova   Ionic  VDW   Symbol
--------------------------------------------------------------------------------
    Si       Core       14      28.09   0.000000   1.200  0.000  2.100          
    O        Core        8      16.00   0.000000   0.730  0.000  1.360          
--------------------------------------------------------------------------------


  Lattice summation method               =    Ewald          (3-D)
                                         =    Parry          (2-D)
                                         =    Saunders et al (1-D)
  Accuracy factor for lattice sums       =   12.000


  Analytic derivatives to be used

  Time limit = Infinity

  Bond-order one-body potentials :

--------------------------------------------------------------------------------
Atom  Type            AlphaA               AlphaB          nA       nB          
--------------------------------------------------------------------------------
O    c             0.0000000000         0.0000001163     1.0497   1.0497
--------------------------------------------------------------------------------
Si   c             0.0000000000         0.0000011000     0.7873   0.7873
--------------------------------------------------------------------------------

  Bond-order two-body potentials :

--------------------------------------------------------------------------------
Atom  Types                 A                 B                  Cutoffs(Ang)   
  1     2                 ZetaA             ZetaB                Taper    Max   
--------------------------------------------------------------------------------
O    c O    c          1882.5500000000       218.7870000000     1.7000   2.0000
                          4.171080000          2.356920000    
--------------------------------------------------------------------------------
Si   c Si   c          1830.8000000000       471.1800000000     2.5000   2.8000
                          2.479900000          1.732220000    
--------------------------------------------------------------------------------
O    c Si   c          1856.4946916164       378.6898939267     2.0616   2.3664
                          3.325490000          2.044570000    
--------------------------------------------------------------------------------

  Bond-order repulsive :

--------------------------------------------------------------------------------
Atom    Type         Omega            Lambda          M                           
 1/2     1/2                                                                    
--------------------------------------------------------------------------------
O    c             1.00000000       0.00000000        3
X    c
--------------------------------------------------------------------------------
Si   c             1.00000000       0.00000000        3
X    c
--------------------------------------------------------------------------------

  Bond-order attractive :

--------------------------------------------------------------------------------
Atom    Type         Omega            Lambda          M                           
 1/2     1/2           C              D                H                        
--------------------------------------------------------------------------------
O    c  Theta       1.00000000       0.00000000       3
X    c          64692.10000000       4.11127000      -0.84592200
--------------------------------------------------------------------------------
Si   c  Theta       1.00000000       0.00000000       3
X    c         100390.00000000      16.21700000      -0.59825000
--------------------------------------------------------------------------------

********************************************************************************
*  Output for configuration   1                                                *
********************************************************************************


  Components of energy : 

--------------------------------------------------------------------------------
  Interatomic potentials     =           0.00000000 eV    
  Bond-order potentials      =         -60.01277623 eV    
  Monopole - monopole (real) =           0.00000000 eV    
  Monopole - monopole (recip)=           0.00000000 eV    
  Monopole - monopole (total)=           0.00000000 eV    
--------------------------------------------------------------------------------
  Total lattice energy       =         -60.01277623 eV    
--------------------------------------------------------------------------------
  Total lattice energy       =           -5790.3155 kJ/(mole unit cells)
--------------------------------------------------------------------------------


  Number of variables =        6

  Maximum number of calculations  =          1000
  Maximum Hessian update interval =            10
  Maximum step size               =   1.000000000
  Maximum parameter tolerance     =   0.000010000
  Maximum function  tolerance     =   0.000010000
  Maximum gradient  tolerance     =   0.001000000
  Maximum gradient  component     =   0.010000000

  Symmetry constrained optimisation

  Symmetry used for second derivatives

  Cell parameters to be optimised using strains

  Newton-Raphson optimiser to be used

  BFGS hessian update to be used

  Lower half triangular hessian to be used

  Start of bulk optimisation :

  Cycle:      0 Energy:       -60.012776  Gnorm:      2.732036  CPU:    0.017
  ** Hessian calculated **
  Cycle:      1 Energy:       -60.277337  Gnorm:      0.454231  CPU:    0.017
  Cycle:      2 Energy:       -60.278656  Gnorm:      0.091826  CPU:    0.017
  Cycle:      3 Energy:       -60.278800  Gnorm:      0.034597  CPU:    0.017
  Cycle:      4 Energy:       -60.278812  Gnorm:      0.018163  CPU:    0.017
  Cycle:      5 Energy:       -60.278814  Gnorm:      0.002926  CPU:    0.017


  **** Optimisation achieved ****


  Final energy =     -60.27881356 eV      
  Final Gnorm  =       0.00024608

  Components of energy : 

--------------------------------------------------------------------------------
  Interatomic potentials     =           0.00000000 eV    
  Bond-order potentials      =         -60.27881356 eV    
  Monopole - monopole (real) =           0.00000000 eV    
  Monopole - monopole (recip)=           0.00000000 eV    
  Monopole - monopole (total)=           0.00000000 eV    
--------------------------------------------------------------------------------
  Total lattice energy       =         -60.27881356 eV    
--------------------------------------------------------------------------------
  Total lattice energy       =           -5815.9841 kJ/(mole unit cells)
--------------------------------------------------------------------------------

  Final asymmetric unit coordinates :

--------------------------------------------------------------------------------
   No.  Atomic        x           y           z         Radius
        Label       (Frac)      (Frac)      (Frac)       (Angs) 
--------------------------------------------------------------------------------
     1  Si    c     0.475960    0.000000    0.333333    0.000000
     2  O     c     0.418660    0.257409    0.204947    0.000000
--------------------------------------------------------------------------------

  Final Cartesian lattice vectors (Angstroms) :

        5.082028    0.000000    0.000000
       -2.541014    4.401165    0.000000
        0.000000    0.000000    5.527786


  Final cell parameters and derivatives :

--------------------------------------------------------------------------------
       a            5.082028 Angstrom     dE/de1(xx)    -0.000395 eV/strain
       b            5.082028 Angstrom     dE/de2(yy)     0.000000 eV/strain
       c            5.527786 Angstrom     dE/de3(zz)    -0.000152 eV/strain
       alpha       90.000000 Degrees      dE/de4(yz)     0.000000 eV/strain
       beta        90.000000 Degrees      dE/de5(xz)     0.000000 eV/strain
       gamma      120.000000 Degrees      dE/de6(xy)     0.000000 eV/strain
--------------------------------------------------------------------------------

  Primitive cell volume =           123.639118 Angs**3

  Density of cell =      2.421160 g/cm**3

  Non-primitive cell volume =           123.639118 Angs**3


  Final internal derivatives :

--------------------------------------------------------------------------------
   No.  Atomic          a             b             c           Radius
        Label          (eV)          (eV)          (eV)        (eV/Angs)
--------------------------------------------------------------------------------
      1 Si    c       0.000238      0.000000      0.000000      0.000000
      2 O     c       0.001033     -0.000840      0.000413      0.000000
--------------------------------------------------------------------------------
  Maximum abs         0.001033      0.000840      0.000413      0.000000
--------------------------------------------------------------------------------


  Comparison of initial and final structures : 

--------------------------------------------------------------------------------
  Parameter   Initial value   Final value   Difference    Units      Percent
--------------------------------------------------------------------------------
    Volume       112.988938    123.639118    10.650180    Angs**3      9.43
    a              4.913000      5.082028     0.169028    Angstroms    3.44
    b              4.913000      5.082028     0.169028    Angstroms    3.44
    c              5.405200      5.527786     0.122586    Angstroms    2.27
    alpha         90.000000     90.000000     0.000000    Degrees      0.00
    beta          90.000000     90.000000     0.000000    Degrees      0.00
    gamma        120.000000    120.000000     0.000000    Degrees      0.00
      1 x          0.470100      0.475960     0.005860    Fractional   1.25
      1 y          0.000000      0.000000     0.000000    Fractional   0.00
      1 z          0.333333      0.333333     0.000000    Fractional   0.00
      2 x          0.413600      0.418660     0.005060    Fractional   1.22
      2 y          0.267600      0.257409     0.010191    Fractional   3.81
      2 z          0.214100      0.204947     0.009153    Fractional   4.28
--------------------------------------------------------------------------------



  Elastic Constant Matrix: (Units=GPa)

-------------------------------------------------------------------------------
  Indices      1         2         3         4         5         6    
-------------------------------------------------------------------------------
       1    100.5078   36.7047   39.9075   -6.6797    0.0004   -0.0000
       2     36.7047  100.5078   39.9075    6.6797   -0.0004   -0.0000
       3     39.9075   39.9075   87.9838    0.0000   -0.0000    0.0000
       4     -6.6797    6.6797    0.0000   37.9440    0.0000   -0.0004
       5      0.0004   -0.0004   -0.0000    0.0000   37.9440   -6.6797
       6     -0.0000   -0.0000    0.0000   -0.0004   -6.6797   31.9016
-------------------------------------------------------------------------------


  Elastic Compliance Matrix: (Units=1/GPa)

-------------------------------------------------------------------------------
  Indices      1         2         3         4         5         6    
-------------------------------------------------------------------------------
       1    0.013087 -0.003187 -0.004490  0.002865 -0.000000  0.000000
       2   -0.003187  0.013087 -0.004490 -0.002865  0.000000  0.000000
       3   -0.004490 -0.004490  0.015439 -0.000000  0.000000 -0.000000
       4    0.002865 -0.002865 -0.000000  0.027363 -0.000000  0.000000
       5   -0.000000  0.000000  0.000000 -0.000000  0.027363  0.005729
       6    0.000000  0.000000 -0.000000  0.000000  0.005729  0.032546
-------------------------------------------------------------------------------

  Mechanical properties :

-------------------------------------------------------------------------------
  Convention :                    Reuss         Voigt         Hill
-------------------------------------------------------------------------------
  Bulk  Modulus (GPa)     =      57.87854      58.00428      57.94141
  Shear Modulus (GPa)     =      31.45075      33.05656      32.25365
-------------------------------------------------------------------------------
  Velocity S-wave (km/s)  =       3.60416       3.69502       3.64987
  Velocity P-wave (km/s)  =       6.42069       6.49319       6.45704
-------------------------------------------------------------------------------
  Compressibility (1/GPa) =    0.01727756
-------------------------------------------------------------------------------
  Stress axis :                     x             y             z
-------------------------------------------------------------------------------
  Youngs Moduli (GPa)     =      76.41454      76.41454      64.77004
-------------------------------------------------------------------------------
  Poissons Ratio (x)      =                     0.24350       0.29084
  Poissons Ratio (y)      =       0.24350                     0.29084
  Poissons Ratio (z)      =       0.34313       0.34313
-------------------------------------------------------------------------------


  Piezoelectric Strain Matrix: (Units=C/m**2)

-------------------------------------------------------------------------------
  Indices      1         2         3         4         5         6    
-------------------------------------------------------------------------------
       x    -0.00000  -0.00000  -0.00000  -0.00000  -0.00000  -0.00000
       y    -0.00000  -0.00000  -0.00000  -0.00000  -0.00000  -0.00000
       z    -0.00000  -0.00000  -0.00000  -0.00000  -0.00000  -0.00000
-------------------------------------------------------------------------------


  Piezoelectric Stress Matrix: (Units=10**-11 C/N)

-------------------------------------------------------------------------------
  Indices      1         2         3         4         5         6    
-------------------------------------------------------------------------------
       x     0.00000   0.00000   0.00000   0.00000   0.00000   0.00000
       y     0.00000   0.00000   0.00000   0.00000   0.00000   0.00000
       z     0.00000   0.00000   0.00000   0.00000   0.00000   0.00000
-------------------------------------------------------------------------------


  Static dielectric constant tensor : 

-------------------------------------------------------------------------------
              x         y         z
-------------------------------------------------------------------------------
       x     1.00000   0.00000   0.00000
       y     0.00000   1.00000   0.00000
       z     0.00000   0.00000   1.00000
--------------------------------------------------------------------------------

  Static refractive indices : 

-------------------------------------------------------------------------------
    1 =    1.00000      2 =    1.00000      3 =    1.00000
-------------------------------------------------------------------------------


  Phonon Calculation : 

  Number of k points for this configuration =        1

--------------------------------------------------------------------------------
  K point      1 =   0.000000  0.000000  0.000000  Weight =    1.000
--------------------------------------------------------------------------------

  Frequencies (cm-1) [NB: Negative implies an imaginary mode]:

   -0.00    0.00    0.00  134.48  134.48  171.11  278.77  278.77  312.76
  321.93  371.60  371.60  419.31  419.31  499.79  501.97  649.76  649.76
  738.56  796.47  796.47 1107.24 1107.24 1223.80 1225.07 1226.53 1226.53


--------------------------------------------------------------------------------
  Phonon properties (per mole of unit cells): Temperature =      0.000 K
--------------------------------------------------------------------------------
  Zero point energy             =        0.927611 eV
--------------------------------------------------------------------------------

  Time to end of optimisation =       0.0193 seconds


  Peak dynamic memory used =       1.84 MB 


  Timing analysis for GULP :

--------------------------------------------------------------------------------
  Task / Subroutine                                          Time (Seconds)
--------------------------------------------------------------------------------
  Calculation of Bond Order energy and derivatives                0.0005
  Calculation of phonons                                          0.0014
  Calculation of matrix diagonalisation                           0.0013
  Symmetry generation of equivalent positions                     0.0001
--------------------------------------------------------------------------------
  Total CPU time                                                  0.0194
--------------------------------------------------------------------------------


  Job Finished at 12:15.59 25th August     2022                               

