********************************************************************************
*                       GENERAL UTILITY LATTICE PROGRAM                        *
*                                 Julian Gale                                  *
*                       Curtin Institute for Computation                       *
*                    School of Molecular and Life Sciences                     *
*                    Curtin University, Western Australia                      *
********************************************************************************
* Version = 6.1.0 * Last modified =  25th August 2022                          *
********************************************************************************
*  fit          - perform fitting run                                          *
*  noflags      - no flags to be read in, assumed to all be zero               *
*  c6           - use real and reciprocal space sum for C6 terms               *
*  molecule     - molecule option activated, Coulomb subtract within molecule  *
********************************************************************************
* example of a molecular crystal - urea                                        *
* energy surface fit, rather than empirical structure fit                      *
* fit bonded potentials to C to surface from distorting                        *
* C along z axis - energies are not real ones!                                 *
********************************************************************************


  Job Started  at 12:13.44 25th August     2022                               

  Number of CPUs =     1


  Total number of configurations input =      4

********************************************************************************
*  Input for Configuration =   1                                               *
********************************************************************************

  Formula = C2O2N4H8                                                    

  Number of irreducible atoms/shells =       5


  Total number atoms/shells =      16

  Dimensionality = 3               :  Bulk   


  Symmetry :

  Crystal family                   :  Tetragonal  
  Crystal class  (Groth - 1921)    :  Tetragonal Scalenohedral             

  Space group (noncentrosymmetric) :  P -4 21 M       

  Patterson group                  :  P 4/m m m

  Cartesian lattice vectors (Angstroms) :

        5.565000    0.000000    0.000000
        0.000000    5.565000    0.000000
        0.000000    0.000000    4.684000

  Cell parameters (Angstroms/Degrees):

  a =       5.5650    alpha =  90.0000
  b =       5.5650    beta  =  90.0000
  c =       4.6840    gamma =  90.0000

  Initial cell volume =         145.059850 Angs**3

  Temperature of configuration =   0.00     K 

  Pressure of configuration =         0.000 GPa 

  Fractional coordinates of asymmetric unit :

--------------------------------------------------------------------------------
   No.  Atomic       x           y          z         Charge      Occupancy
        Label      (Frac)      (Frac)     (Frac)        (e)         (Frac)  
--------------------------------------------------------------------------------
      1 C     c    0.000000    0.500000    0.326000     0.38000    1.000000    
      2 O     c    0.000000    0.500000    0.585300    -0.38000    1.000000    
      3 N     c    0.145900    0.645900    0.176600    -0.83000    1.000000    
      4 H     c    0.257500    0.757500    0.282700     0.41500    1.000000    
      5 H     c    0.144100    0.644100    0.962000     0.41500    1.000000    
--------------------------------------------------------------------------------



  Molecule list generated from bond lengths :

  Total number of molecules =     2

--------------------------------------------------------------------------------
Molecule No./:  Atoms
Periodicity  :  
--------------------------------------------------------------------------------
     1  0    : C    c     1 O    c     3 N    c     5 N    c     6 H    c     9
             : H    c    10 H    c    13 H    c    14
     2  0    : C    c     2 O    c     4 N    c     7 N    c     8 H    c    11
             : H    c    12 H    c    15 H    c    16
--------------------------------------------------------------------------------

  Constraints : 

--------------------------------------------------------------------------------
  Constraint no.      Unconstrained     Constrained    Coefficient    Offset
                         Variable         Variable
--------------------------------------------------------------------------------
           1              Strain 1        Strain 2       1.00000      0.0000
           2                 3 x             3 y         1.00000      0.5000
           3                 4 x             4 y         1.00000      0.5000
           4                 5 x             5 y         1.00000      0.5000
--------------------------------------------------------------------------------


********************************************************************************
*  Input for Configuration =   2                                               *
********************************************************************************

  Formula = C2O2N4H8                                                    

  Number of irreducible atoms/shells =       5


  Total number atoms/shells =      16

  Dimensionality = 3               :  Bulk   


  Symmetry :

  Crystal family                   :  Tetragonal  
  Crystal class  (Groth - 1921)    :  Tetragonal Scalenohedral             

  Space group (noncentrosymmetric) :  P -4 21 M       

  Patterson group                  :  P 4/m m m

  Cartesian lattice vectors (Angstroms) :

        5.565000    0.000000    0.000000
        0.000000    5.565000    0.000000
        0.000000    0.000000    4.684000

  Cell parameters (Angstroms/Degrees):

  a =       5.5650    alpha =  90.0000
  b =       5.5650    beta  =  90.0000
  c =       4.6840    gamma =  90.0000

  Initial cell volume =         145.059850 Angs**3

  Temperature of configuration =   0.00     K 

  Pressure of configuration =         0.000 GPa 

  Fractional coordinates of asymmetric unit :

--------------------------------------------------------------------------------
   No.  Atomic       x           y          z         Charge      Occupancy
        Label      (Frac)      (Frac)     (Frac)        (e)         (Frac)  
--------------------------------------------------------------------------------
      1 C     c    0.000000    0.500000    0.327000     0.38000    1.000000    
      2 O     c    0.000000    0.500000    0.585300    -0.38000    1.000000    
      3 N     c    0.145900    0.645900    0.176600    -0.83000    1.000000    
      4 H     c    0.257500    0.757500    0.282700     0.41500    1.000000    
      5 H     c    0.144100    0.644100    0.962000     0.41500    1.000000    
--------------------------------------------------------------------------------



  Molecule list generated from bond lengths :

  Total number of molecules =     2

--------------------------------------------------------------------------------
Molecule No./:  Atoms
Periodicity  :  
--------------------------------------------------------------------------------
     1  0    : C    c     1 O    c     3 N    c     5 N    c     6 H    c     9
             : H    c    10 H    c    13 H    c    14
     2  0    : C    c     2 O    c     4 N    c     7 N    c     8 H    c    11
             : H    c    12 H    c    15 H    c    16
--------------------------------------------------------------------------------

  Constraints : 

--------------------------------------------------------------------------------
  Constraint no.      Unconstrained     Constrained    Coefficient    Offset
                         Variable         Variable
--------------------------------------------------------------------------------
           1              Strain 1        Strain 2       1.00000      0.0000
           2                 3 x             3 y         1.00000      0.5000
           3                 4 x             4 y         1.00000      0.5000
           4                 5 x             5 y         1.00000      0.5000
--------------------------------------------------------------------------------


********************************************************************************
*  Input for Configuration =   3                                               *
********************************************************************************

  Formula = C2O2N4H8                                                    

  Number of irreducible atoms/shells =       5


  Total number atoms/shells =      16

  Dimensionality = 3               :  Bulk   


  Symmetry :

  Crystal family                   :  Tetragonal  
  Crystal class  (Groth - 1921)    :  Tetragonal Scalenohedral             

  Space group (noncentrosymmetric) :  P -4 21 M       

  Patterson group                  :  P 4/m m m

  Cartesian lattice vectors (Angstroms) :

        5.565000    0.000000    0.000000
        0.000000    5.565000    0.000000
        0.000000    0.000000    4.684000

  Cell parameters (Angstroms/Degrees):

  a =       5.5650    alpha =  90.0000
  b =       5.5650    beta  =  90.0000
  c =       4.6840    gamma =  90.0000

  Initial cell volume =         145.059850 Angs**3

  Temperature of configuration =   0.00     K 

  Pressure of configuration =         0.000 GPa 

  Fractional coordinates of asymmetric unit :

--------------------------------------------------------------------------------
   No.  Atomic       x           y          z         Charge      Occupancy
        Label      (Frac)      (Frac)     (Frac)        (e)         (Frac)  
--------------------------------------------------------------------------------
      1 C     c    0.000000    0.500000    0.325000     0.38000    1.000000    
      2 O     c    0.000000    0.500000    0.585300    -0.38000    1.000000    
      3 N     c    0.145900    0.645900    0.176600    -0.83000    1.000000    
      4 H     c    0.257500    0.757500    0.282700     0.41500    1.000000    
      5 H     c    0.144100    0.644100    0.962000     0.41500    1.000000    
--------------------------------------------------------------------------------



  Molecule list generated from bond lengths :

  Total number of molecules =     2

--------------------------------------------------------------------------------
Molecule No./:  Atoms
Periodicity  :  
--------------------------------------------------------------------------------
     1  0    : C    c     1 O    c     3 N    c     5 N    c     6 H    c     9
             : H    c    10 H    c    13 H    c    14
     2  0    : C    c     2 O    c     4 N    c     7 N    c     8 H    c    11
             : H    c    12 H    c    15 H    c    16
--------------------------------------------------------------------------------

  Constraints : 

--------------------------------------------------------------------------------
  Constraint no.      Unconstrained     Constrained    Coefficient    Offset
                         Variable         Variable
--------------------------------------------------------------------------------
           1              Strain 1        Strain 2       1.00000      0.0000
           2                 3 x             3 y         1.00000      0.5000
           3                 4 x             4 y         1.00000      0.5000
           4                 5 x             5 y         1.00000      0.5000
--------------------------------------------------------------------------------


********************************************************************************
*  Input for Configuration =   4                                               *
********************************************************************************

  Formula = C2O2N4H8                                                    

  Number of irreducible atoms/shells =       5


  Total number atoms/shells =      16

  Dimensionality = 3               :  Bulk   


  Symmetry :

  Crystal family                   :  Tetragonal  
  Crystal class  (Groth - 1921)    :  Tetragonal Scalenohedral             

  Space group (noncentrosymmetric) :  P -4 21 M       

  Patterson group                  :  P 4/m m m

  Cartesian lattice vectors (Angstroms) :

        5.565000    0.000000    0.000000
        0.000000    5.565000    0.000000
        0.000000    0.000000    4.684000

  Cell parameters (Angstroms/Degrees):

  a =       5.5650    alpha =  90.0000
  b =       5.5650    beta  =  90.0000
  c =       4.6840    gamma =  90.0000

  Initial cell volume =         145.059850 Angs**3

  Temperature of configuration =   0.00     K 

  Pressure of configuration =         0.000 GPa 

  Fractional coordinates of asymmetric unit :

--------------------------------------------------------------------------------
   No.  Atomic       x           y          z         Charge      Occupancy
        Label      (Frac)      (Frac)     (Frac)        (e)         (Frac)  
--------------------------------------------------------------------------------
      1 C     c    0.000000    0.500000    0.328000     0.38000    1.000000    
      2 O     c    0.000000    0.500000    0.585300    -0.38000    1.000000    
      3 N     c    0.145900    0.645900    0.176600    -0.83000    1.000000    
      4 H     c    0.257500    0.757500    0.282700     0.41500    1.000000    
      5 H     c    0.144100    0.644100    0.962000     0.41500    1.000000    
--------------------------------------------------------------------------------



  Molecule list generated from bond lengths :

  Total number of molecules =     2

--------------------------------------------------------------------------------
Molecule No./:  Atoms
Periodicity  :  
--------------------------------------------------------------------------------
     1  0    : C    c     1 O    c     3 N    c     5 N    c     6 H    c     9
             : H    c    10 H    c    13 H    c    14
     2  0    : C    c     2 O    c     4 N    c     7 N    c     8 H    c    11
             : H    c    12 H    c    15 H    c    16
--------------------------------------------------------------------------------

  Constraints : 

--------------------------------------------------------------------------------
  Constraint no.      Unconstrained     Constrained    Coefficient    Offset
                         Variable         Variable
--------------------------------------------------------------------------------
           1              Strain 1        Strain 2       1.00000      0.0000
           2                 3 x             3 y         1.00000      0.5000
           3                 4 x             4 y         1.00000      0.5000
           4                 5 x             5 y         1.00000      0.5000
--------------------------------------------------------------------------------


********************************************************************************
*  General input information                                                   *
********************************************************************************

  Species output for all configurations : 

--------------------------------------------------------------------------------
  Species    Type    Atomic    Atomic    Charge       Radii (Angs)     Library
                     Number     Mass       (e)     Cova   Ionic  VDW   Symbol
--------------------------------------------------------------------------------
    C        Core        6      12.01   0.380000   0.770  0.000  1.530          
    O        Core        8      16.00  -0.380000   0.730  0.000  1.360          
    N        Core        7      14.01  -0.830000   0.750  0.000  1.480          
    H        Core        1       1.01   0.415000   0.370  0.000  1.080          
--------------------------------------------------------------------------------


  Lattice summation method               =    Ewald          (3-D)
                                         =    Parry          (2-D)
                                         =    Saunders et al (1-D)
  Accuracy factor for lattice sums       =   12.000


  Analytic derivatives to be used

  Time limit = Infinity

  Maximum range for interatomic potentials =    100000.000000 Angstroms

  C6 terms to be calculated in real and reciprocal space 

  Intramolecular potentials :

--------------------------------------------------------------------------------
Atom  Types   Potential      Parameter       Value         Units   Cutoffs(Ang)
  1     2                                                            Min /  Max 
--------------------------------------------------------------------------------
C    c O    c Morse         Morse  De        6.2880000    eV        0.000  1.600
                            Morse  a0        2.0600000    Ang^-1    
                            Morse  r0        1.2300000    Ang       
--------------------------------------------------------------------------------
C    c N    c Morse         Morse  De        4.2060000    eV        0.000  1.600
                            Morse  a0        2.0000000    Ang^-1    
                            Morse  r0        1.3200000    Ang       
--------------------------------------------------------------------------------
H    c N    c Morse         Morse  De        3.8160000    eV        0.000  1.600
                            Morse  a0        2.2800000    Ang^-1    
                            Morse  r0        1.0260000    Ang       
--------------------------------------------------------------------------------

  Intermolecular potentials :

--------------------------------------------------------------------------------
Atom  Types   Potential      Parameter       Value         Units   Cutoffs(Ang)
  1     2                                                            Min /  Max 
--------------------------------------------------------------------------------
C    c O    c Lennard       Lennard-Jones A  39031.570    eV*Ang^m  0.000 40.000
                            Lennard-Jones B  35.266000    eV*Ang^n  
                            Exponent m        12          None
                            Exponent n         6          None
--------------------------------------------------------------------------------
C    c N    c Lennard       Lennard-Jones A  112494.67    eV*Ang^m  0.000 40.000
                            Lennard-Jones B  55.387000    eV*Ang^n  
                            Exponent m        12          None
                            Exponent n         6          None
--------------------------------------------------------------------------------
O    c O    c Lennard       Lennard-Jones A  11833.864    eV*Ang^m  0.000 40.000
                            Lennard-Jones B  21.633000    eV*Ang^n  
                            Exponent m        12          None
                            Exponent n         6          None
--------------------------------------------------------------------------------
N    c O    c Lennard       Lennard-Jones A  34106.919    eV*Ang^m  0.000 40.000
                            Lennard-Jones B  33.977000    eV*Ang^n  
                            Exponent m        12          None
                            Exponent n         6          None
--------------------------------------------------------------------------------
N    c N    c Lennard       Lennard-Jones A  98301.108    eV*Ang^m  0.000 40.000
                            Lennard-Jones B  53.362000    eV*Ang^n  
                            Exponent m        12          None
                            Exponent n         6          None
--------------------------------------------------------------------------------
C    c C    c Lennard       Lennard-Jones A  128737.61    eV*Ang^m  0.000 40.000
                            Lennard-Jones B  57.488000    eV*Ang^n  
                            Exponent m        12          None
                            Exponent n         6          None
--------------------------------------------------------------------------------

  Energy shifts for configurations :

--------------------------------------------------------------------------------
      Configuration           Energy (eV)        Scale Factor
--------------------------------------------------------------------------------
             1                1.00000                 1.000
             2                1.00000                 1.000
             3                1.00000                 1.000
             4                1.00000                 1.000
--------------------------------------------------------------------------------


  General Three-body potentials :

--------------------------------------------------------------------------------
  Atoms       Potential      Parameter       Value         Units   Cutoffs(Ang)
  1 / 2 / 3                                                          Min /  Max 
--------------------------------------------------------------------------------
C     core    Harmonic      Three-body cnst  5.8970000    eV*rad^-2 0.000  1.600
N     core                  Three-body angl  121.00000    degrees   0.000  1.600
O     core                  Three-body k4    0.0000000    eV*rad^-4 0.000  3.000
                            Three-body k3    0.0000000    eV*rad^-3 
--------------------------------------------------------------------------------
N     core    Harmonic      Three-body cnst  3.2520000    eV*rad^-2 0.000  1.400
H     core                  Three-body angl  120.00000    degrees   0.000  1.600
C     core                  Three-body k4    0.0000000    eV*rad^-4 0.000  2.600
                            Three-body k3    0.0000000    eV*rad^-3 
--------------------------------------------------------------------------------
N     core    Harmonic      Three-body cnst  2.8620000    eV*rad^-2 0.000  1.400
H     core                  Three-body angl  120.00000    degrees   0.000  1.400
H     core                  Three-body k4    0.0000000    eV*rad^-4 0.000  2.300
                            Three-body k3    0.0000000    eV*rad^-3 
--------------------------------------------------------------------------------
C     core    Harmonic      Three-body cnst  8.8460000    eV*rad^-2 0.000  1.600
N     core                  Three-body angl  118.00000    degrees   0.000  1.600
N     core                  Three-body k4    0.0000000    eV*rad^-4 0.000  2.800
                            Three-body k3    0.0000000    eV*rad^-3 
--------------------------------------------------------------------------------

  General Four-body potentials :

--------------------------------------------------------------------------------
  Atoms       Potential      Parameter       Value         Units   Cutoffs(Ang)
  1 - 4                                                             Min /  Max 
--------------------------------------------------------------------------------
O     core    Standard      Torsional const 0.26020000    eV        0.000  1.400
C     core Phase = -  2                                             0.000  1.400
N     core                                                          0.000  1.300
H     core                                                          0.000  0.000
--------------------------------------------------------------------------------
N     core    Standard      Torsional const 0.21700000E-02eV        0.000  1.600
C     core Phase = -  2                                             0.000  1.600
N     core                                                          0.000  1.300
H     core                                                          0.000  0.000
--------------------------------------------------------------------------------
O     core    Standard      Torsional const 0.43400000    eV        0.000  1.600
C     core Phase = -  2                                             0.000  1.600
N     core                                                          0.000  3.000
N     core                                                          0.000  0.000
--------------------------------------------------------------------------------


  Number of variables   =        2
  Number of observables =        4

--------------------------------------------------------------------------------
   Observable no.  Type           Observable    Weight       Reference  Confign 
--------------------------------------------------------------------------------
          1        Energy           -3.357918      100.0000                1
          2        Energy           -3.085802      100.0000                2
          3        Energy           -3.113013      100.0000                3
          4        Energy           -2.541568      100.0000                4
--------------------------------------------------------------------------------

  Variables :

--------------------------------------------------------------------------------
     Parameter No.       Parameter Value          Parameter Type  Species
--------------------------------------------------------------------------------
             1                  1.000000          Energy shift        0
             2                  1.230000          Morse  r0      
--------------------------------------------------------------------------------

  Symmetry constraints used for fitting
  First derivatives of residuals to be used in fitting

  Maximum no. of cycles   =       5000
  Maximum step size       =  1000.0000
  Tolerance on parameters =  0.0000100
  Tolerance on function   =  0.0000100
  Tolerance on gradient   =  0.0001000
  Differencing interval   =  0.0001000

  Dumpfile to be written after every cycle

  Start of fitting :

  Cycle:      0  Sum sqs: 1333599.933571  Gnorm: 123564.333688  CPU:    0.032
  ** Hessian calculated **
  Cycle:      1  Sum sqs:  152463.561608  Gnorm:4747903.283301  CPU:    0.109
  Cycle:      2  Sum sqs:     495.695856  Gnorm:   7486.818179  CPU:    0.157
  Cycle:      3  Sum sqs:     415.896609  Gnorm:  60589.177256  CPU:    0.217
  Cycle:      4  Sum sqs:     357.344910  Gnorm:  72450.791367  CPU:    0.270
  Cycle:      5  Sum sqs:     291.027814  Gnorm:  10509.387863  CPU:    0.317
  Cycle:      6  Sum sqs:     266.166022  Gnorm:   1222.891766  CPU:    0.395
  Cycle:      7  Sum sqs:     236.677455  Gnorm:  31294.071636  CPU:    0.457
  Cycle:      8  Sum sqs:     223.605006  Gnorm:  44175.034984  CPU:    0.510
  Cycle:      9  Sum sqs:     118.613025  Gnorm:  17191.352449  CPU:    0.587
  Cycle:     10  Sum sqs:     114.918629  Gnorm:   4324.916941  CPU:    0.634
  Cycle:     11  Sum sqs:      95.164961  Gnorm:  13883.753813  CPU:    0.712
  Cycle:     12  Sum sqs:      87.310360  Gnorm:  21257.404838  CPU:    0.753
  Cycle:     13  Sum sqs:      67.957575  Gnorm:   3541.488323  CPU:    0.800
  Cycle:     14  Sum sqs:      58.333042  Gnorm:   4244.600300  CPU:    0.877
  Cycle:     15  Sum sqs:      55.393960  Gnorm:  11486.816162  CPU:    0.919
  Cycle:     16  Sum sqs:      48.496232  Gnorm:   1150.574362  CPU:    0.966
  Cycle:     17  Sum sqs:      46.690484  Gnorm:    567.818779  CPU:    1.028
  Cycle:     18  Sum sqs:      42.347704  Gnorm:   1546.193234  CPU:    1.101
  Cycle:     19  Sum sqs:      38.869561  Gnorm:   6021.304443  CPU:    1.153
  Cycle:     20  Sum sqs:      36.681581  Gnorm:   9031.282853  CPU:    1.204
  ** Hessian calculated **
  Cycle:     21  Sum sqs:      31.572338  Gnorm:    269.823855  CPU:    1.271
  Cycle:     22  Sum sqs:      27.220197  Gnorm:   1481.528101  CPU:    1.344
  Cycle:     23  Sum sqs:      25.787708  Gnorm:   2995.352746  CPU:    1.386
  Cycle:     24  Sum sqs:      24.207614  Gnorm:   4450.370358  CPU:    1.438
  Cycle:     25  Sum sqs:      17.804860  Gnorm:    151.467438  CPU:    1.505
  Cycle:     26  Sum sqs:      17.568181  Gnorm:    981.446177  CPU:    1.551
  Cycle:     27  Sum sqs:      16.920570  Gnorm:   1629.032177  CPU:    1.603
  Cycle:     28  Sum sqs:      15.577597  Gnorm:    557.940000  CPU:    1.649
  Cycle:     29  Sum sqs:      15.517154  Gnorm:      6.173386  CPU:    1.701
  Cycle:     30  Sum sqs:      15.335146  Gnorm:    239.191494  CPU:    1.752
  Cycle:     31  Sum sqs:      15.275360  Gnorm:    511.842038  CPU:    1.794
  Cycle:     32  Sum sqs:      15.207048  Gnorm:     31.969329  CPU:    1.841
  Cycle:     33  Sum sqs:      15.180763  Gnorm:    110.978702  CPU:    1.893
  Cycle:     34  Sum sqs:      15.174693  Gnorm:      1.360102  CPU:    1.935
  Cycle:     35  Sum sqs:      15.174692  Gnorm:      1.301640  CPU:    1.982


  **** Fit completed successfully ****


  Final sum of squares =            15.174692

  Final gradient norm  =             1.301640

  Final values of parameters :

--------------------------------------------------------------------------------
 Parameter No.    Parameter        Parameter      Parameter Type  Species
                  Original         Final                                 
--------------------------------------------------------------------------------
         1              1.000000        55.504121 Energy shift        0
         2              1.230000         1.411763 Morse  r0      
--------------------------------------------------------------------------------


  Final values of numerical parameter gradients :

--------------------------------------------------------------------------------
     Parameter No.       Parameter Gradient      Parameter Type  Species
--------------------------------------------------------------------------------
             1                  0.024633          Energy shift        0
             2                  1.301407          Morse  r0      
--------------------------------------------------------------------------------


  Final values of residuals :

--------------------------------------------------------------------------------
   Observable no.  Type            Observable   Calculated    Residual  Error(%)
--------------------------------------------------------------------------------
          1        Energy            -3.35792     -3.12923      5.22981    6.810
          2        Energy            -3.08580     -2.92878      2.46568    5.089
          3        Energy            -3.11301     -3.32085      4.31944   -6.676
          4        Energy            -2.54157     -2.71933      3.15976   -6.994
--------------------------------------------------------------------------------

  Comparison of initial and final observables :

--------------------------------------------------------------------------------
   Observable no.  Type            Observable   Initial       Final             
--------------------------------------------------------------------------------
          1        Energy            -3.35792    -60.77898     -3.12923
          2        Energy            -3.08580    -60.75533     -2.92878
          3        Energy            -3.11301    -60.79826     -3.32085
          4        Energy            -2.54157    -60.72724     -2.71933
--------------------------------------------------------------------------------

  Maximum range for interatomic potentials =    100000.000000 Angstroms

  C6 terms to be calculated in real and reciprocal space 

  Intramolecular potentials :

--------------------------------------------------------------------------------
Atom  Types   Potential      Parameter       Value         Units   Cutoffs(Ang)
  1     2                                                            Min /  Max 
--------------------------------------------------------------------------------
C    c O    c Morse         Morse  De        6.2880000    eV        0.000  1.600
                            Morse  a0        2.0600000    Ang^-1    
                            Morse  r0        1.4117628    Ang       
--------------------------------------------------------------------------------
C    c N    c Morse         Morse  De        4.2060000    eV        0.000  1.600
                            Morse  a0        2.0000000    Ang^-1    
                            Morse  r0        1.3200000    Ang       
--------------------------------------------------------------------------------
H    c N    c Morse         Morse  De        3.8160000    eV        0.000  1.600
                            Morse  a0        2.2800000    Ang^-1    
                            Morse  r0        1.0260000    Ang       
--------------------------------------------------------------------------------

  Intermolecular potentials :

--------------------------------------------------------------------------------
Atom  Types   Potential      Parameter       Value         Units   Cutoffs(Ang)
  1     2                                                            Min /  Max 
--------------------------------------------------------------------------------
C    c O    c Lennard       Lennard-Jones A  39031.570    eV*Ang^m  0.000 40.000
                            Lennard-Jones B  35.266000    eV*Ang^n  
                            Exponent m        12          None
                            Exponent n         6          None
--------------------------------------------------------------------------------
C    c N    c Lennard       Lennard-Jones A  112494.67    eV*Ang^m  0.000 40.000
                            Lennard-Jones B  55.387000    eV*Ang^n  
                            Exponent m        12          None
                            Exponent n         6          None
--------------------------------------------------------------------------------
O    c O    c Lennard       Lennard-Jones A  11833.864    eV*Ang^m  0.000 40.000
                            Lennard-Jones B  21.633000    eV*Ang^n  
                            Exponent m        12          None
                            Exponent n         6          None
--------------------------------------------------------------------------------
N    c O    c Lennard       Lennard-Jones A  34106.919    eV*Ang^m  0.000 40.000
                            Lennard-Jones B  33.977000    eV*Ang^n  
                            Exponent m        12          None
                            Exponent n         6          None
--------------------------------------------------------------------------------
N    c N    c Lennard       Lennard-Jones A  98301.108    eV*Ang^m  0.000 40.000
                            Lennard-Jones B  53.362000    eV*Ang^n  
                            Exponent m        12          None
                            Exponent n         6          None
--------------------------------------------------------------------------------
C    c C    c Lennard       Lennard-Jones A  128737.61    eV*Ang^m  0.000 40.000
                            Lennard-Jones B  57.488000    eV*Ang^n  
                            Exponent m        12          None
                            Exponent n         6          None
--------------------------------------------------------------------------------

  Energy shifts for configurations :

--------------------------------------------------------------------------------
      Configuration           Energy (eV)        Scale Factor
--------------------------------------------------------------------------------
             1                55.5041                 1.000
             2                55.5041                 1.000
             3                55.5041                 1.000
             4                55.5041                 1.000
--------------------------------------------------------------------------------


  General Three-body potentials :

--------------------------------------------------------------------------------
  Atoms       Potential      Parameter       Value         Units   Cutoffs(Ang)
  1 / 2 / 3                                                          Min /  Max 
--------------------------------------------------------------------------------
C     core    Harmonic      Three-body cnst  5.8970000    eV*rad^-2 0.000  1.600
N     core                  Three-body angl  121.00000    degrees   0.000  1.600
O     core                  Three-body k4    0.0000000    eV*rad^-4 0.000  3.000
                            Three-body k3    0.0000000    eV*rad^-3 
--------------------------------------------------------------------------------
N     core    Harmonic      Three-body cnst  3.2520000    eV*rad^-2 0.000  1.400
H     core                  Three-body angl  120.00000    degrees   0.000  1.600
C     core                  Three-body k4    0.0000000    eV*rad^-4 0.000  2.600
                            Three-body k3    0.0000000    eV*rad^-3 
--------------------------------------------------------------------------------
N     core    Harmonic      Three-body cnst  2.8620000    eV*rad^-2 0.000  1.400
H     core                  Three-body angl  120.00000    degrees   0.000  1.400
H     core                  Three-body k4    0.0000000    eV*rad^-4 0.000  2.300
                            Three-body k3    0.0000000    eV*rad^-3 
--------------------------------------------------------------------------------
C     core    Harmonic      Three-body cnst  8.8460000    eV*rad^-2 0.000  1.600
N     core                  Three-body angl  118.00000    degrees   0.000  1.600
N     core                  Three-body k4    0.0000000    eV*rad^-4 0.000  2.800
                            Three-body k3    0.0000000    eV*rad^-3 
--------------------------------------------------------------------------------

  General Four-body potentials :

--------------------------------------------------------------------------------
  Atoms       Potential      Parameter       Value         Units   Cutoffs(Ang)
  1 - 4                                                             Min /  Max 
--------------------------------------------------------------------------------
O     core    Standard      Torsional const 0.26020000    eV        0.000  1.400
C     core Phase = -  2                                             0.000  1.400
N     core                                                          0.000  1.300
H     core                                                          0.000  0.000
--------------------------------------------------------------------------------
N     core    Standard      Torsional const 0.21700000E-02eV        0.000  1.600
C     core Phase = -  2                                             0.000  1.600
N     core                                                          0.000  1.300
H     core                                                          0.000  0.000
--------------------------------------------------------------------------------
O     core    Standard      Torsional const 0.43400000    eV        0.000  1.600
C     core Phase = -  2                                             0.000  1.600
N     core                                                          0.000  3.000
N     core                                                          0.000  0.000
--------------------------------------------------------------------------------



  Total time to end of fitting =       1.9873 seconds

********************************************************************************
*  Output for configuration   1                                                *
********************************************************************************


  Components of energy : 

--------------------------------------------------------------------------------
  Interatomic potentials     =         -55.54253842 eV    
  Three-body potentials      =           0.00410704 eV    
  Four-body potentials       =           0.00000000 eV    
  Improper torsions          =           0.00000000 eV    
  Out of plane potentials    =           0.00000000 eV    
  Monopole - monopole (real) =          14.81938481 eV    
  Monopole - monopole (recip)=         -16.22773784 eV    
  Monopole - monopole (total)=          -1.40835304 eV    
  Dispersion (real+recip)    =          -1.68656695 eV    
  Energy shift               =          55.50412112 eV    
--------------------------------------------------------------------------------
  Total lattice energy       =          -3.12923025 eV    
--------------------------------------------------------------------------------
  Total lattice energy       =            -301.9229 kJ/(mole unit cells)
--------------------------------------------------------------------------------

********************************************************************************
*  Output for configuration   2                                                *
********************************************************************************


  Components of energy : 

--------------------------------------------------------------------------------
  Interatomic potentials     =         -55.34852510 eV    
  Three-body potentials      =           0.00735094 eV    
  Four-body potentials       =           0.00000000 eV    
  Improper torsions          =           0.00000000 eV    
  Out of plane potentials    =           0.00000000 eV    
  Monopole - monopole (real) =          14.82259804 eV    
  Monopole - monopole (recip)=         -16.22768625 eV    
  Monopole - monopole (total)=          -1.40508821 eV    
  Dispersion (real+recip)    =          -1.68663536 eV    
  Energy shift               =          55.50412112 eV    
--------------------------------------------------------------------------------
  Total lattice energy       =          -2.92877661 eV    
--------------------------------------------------------------------------------
  Total lattice energy       =            -282.5822 kJ/(mole unit cells)
--------------------------------------------------------------------------------

********************************************************************************
*  Output for configuration   3                                                *
********************************************************************************


  Components of energy : 

--------------------------------------------------------------------------------
  Interatomic potentials     =         -55.72876029 eV    
  Three-body potentials      =           0.00191828 eV    
  Four-body potentials       =           0.00000000 eV    
  Improper torsions          =           0.00000000 eV    
  Out of plane potentials    =           0.00000000 eV    
  Monopole - monopole (real) =          14.81617008 eV    
  Monopole - monopole (recip)=         -16.22778555 eV    
  Monopole - monopole (total)=          -1.41161547 eV    
  Dispersion (real+recip)    =          -1.68650942 eV    
  Energy shift               =          55.50412112 eV    
--------------------------------------------------------------------------------
  Total lattice energy       =          -3.32084578 eV    
--------------------------------------------------------------------------------
  Total lattice energy       =            -320.4109 kJ/(mole unit cells)
--------------------------------------------------------------------------------

********************************************************************************
*  Output for configuration   4                                                *
********************************************************************************


  Components of energy : 

--------------------------------------------------------------------------------
  Interatomic potentials     =         -55.14654951 eV    
  Three-body potentials      =           0.01163844 eV    
  Four-body potentials       =           0.00000000 eV    
  Improper torsions          =           0.00000000 eV    
  Out of plane potentials    =           0.00000000 eV    
  Monopole - monopole (real) =          14.82580980 eV    
  Monopole - monopole (recip)=         -16.22763078 eV    
  Monopole - monopole (total)=          -1.40182098 eV    
  Dispersion (real+recip)    =          -1.68671462 eV    
  Energy shift               =          55.50412112 eV    
--------------------------------------------------------------------------------
  Total lattice energy       =          -2.71932556 eV    
--------------------------------------------------------------------------------
  Total lattice energy       =            -262.3733 kJ/(mole unit cells)
--------------------------------------------------------------------------------

  Peak dynamic memory used =       1.90 MB 


  Timing analysis for GULP :

--------------------------------------------------------------------------------
  Task / Subroutine                                          Time (Seconds)
--------------------------------------------------------------------------------
  Calculation of reciprocal space energy and derivatives          0.0020
  Calculation of reciprocal space energy using symmetry           0.2693
  Calculation of real space energy using symmetry                 1.3872
  Calculation of three-body energy and derivatives                0.0564
  Calculation of four-body energy and derivatives                 0.1647
  Calculation of molecules and connectivity                       0.0432
  Sum of squares for fitting                                      0.0703
  Symmetry generation of equivalent positions                     0.0237
--------------------------------------------------------------------------------
  Total CPU time                                                  1.9931
--------------------------------------------------------------------------------


  Dump file written as example22.grs


  Job Finished at 12:13.46 25th August     2022                               

