********************************************************************************
*                       GENERAL UTILITY LATTICE PROGRAM                        *
*                                 Julian Gale                                  *
*                       Curtin Institute for Computation                       *
*                    School of Molecular and Life Sciences                     *
*                    Curtin University, Western Australia                      *
********************************************************************************
* Version = 6.1.0 * Last modified =  25th August 2022                          *
********************************************************************************
*  optimise     - perform optimisation run                                     *
*  conp         - constant pressure calculation                                *
*  property     - calculate properties for final geometry                      *
*  phonon       - calculate phonons for final geometry                         *
*  sm           - electronegativity equalisation method (Streitz and Mintmire) *
********************************************************************************

  Job Started  at 12:13.55 25th August     2022                               

  Number of CPUs =     1


  Total number of configurations input =      1

********************************************************************************
*  Input for Configuration =   1                                               *
********************************************************************************

  Formula = Al4O6                                                       

  Number of irreducible atoms/shells =       2


  Total number atoms/shells =      10

  Dimensionality = 3               :  Bulk   


  Symmetry :

  Crystal family                   :  Hexagonal   
  Crystal class  (Groth - 1921)    :  Ditrigonal Scalenohedral             

  Space group (centrosymmetric)    :  R -3 C          

  Patterson group                  :  R -3 m   

  Cartesian lattice vectors (Angstroms) :

        2.380100    1.374151    4.331100
       -2.380100    1.374151    4.331100
        0.000000   -2.748303    4.331100

  Primitive cell parameters :            Full cell parameters :

  a =   5.1295    alpha =  55.2915       a =   4.7602    alpha =  90.0000
  b =   5.1295    beta  =  55.2915       b =   4.7602    beta  =  90.0000
  c =   5.1295    gamma =  55.2915       c =  12.9933    gamma = 120.0000

  Initial volumes (Angstroms**3):

  Primitive cell =          84.992234    Full cell =         254.976701

  Temperature of configuration =   0.00     K 

  Pressure of configuration =         0.000 GPa 

  Fractional coordinates of asymmetric unit :

--------------------------------------------------------------------------------
   No.  Atomic       x           y          z         Charge      Occupancy
        Label      (Frac)      (Frac)     (Frac)        (e)         (Frac)  
--------------------------------------------------------------------------------
      1 Al    c    0.000000    0.000000    0.352160 *   0.00000    1.000000    
      2 O     c    0.306240 *  0.000000    0.250000     0.00000    1.000000    
--------------------------------------------------------------------------------


  Constraints : 

--------------------------------------------------------------------------------
  Constraint no.      Unconstrained     Constrained    Coefficient    Offset
                         Variable         Variable
--------------------------------------------------------------------------------
           1              Strain 1        Strain 2       1.00000      0.0000
--------------------------------------------------------------------------------

  Brillouin zone sampling points :

--------------------------------------------------------------------------------
  Point number          x          y          z            Weight
--------------------------------------------------------------------------------
        1           0.000000   0.000000   0.000000     1.00000000
--------------------------------------------------------------------------------


********************************************************************************
*  General input information                                                   *
********************************************************************************

  Species output for all configurations : 

--------------------------------------------------------------------------------
  Species    Type    Atomic    Atomic    Charge       Radii (Angs)     Library
                     Number     Mass       (e)     Cova   Ionic  VDW   Symbol
--------------------------------------------------------------------------------
    Al       Core       13      26.98   0.000000   1.350  0.000  2.050          
    O        Core        8      16.00   0.000000   0.730  0.000  1.360          
--------------------------------------------------------------------------------



  Charge equilibration parameters for Streitz and Mintmire: 

--------------------------------------------------------------------------------
  Element   Chi        Mu       Zeta      Znuc     Q0       E0     Qmin    Qmax 
            (eV)      (eV)     (1/Ang)    (au)    (au)     (eV)    (au)    (au) 
--------------------------------------------------------------------------------
   O      5.48476     7.01786   2.1440   0.0000   0.0000   0.000    -       -   
   Al     0.00000     5.16433   0.9684   0.7468   0.0000   0.000    -       -   
--------------------------------------------------------------------------------


  Lattice summation method               =    Ewald          (3-D)
                                         =    Parry          (2-D)
                                         =    Saunders et al (1-D)
  Accuracy factor for lattice sums       =   12.000


  Analytic derivatives to be used

  Time limit = Infinity

  Maximum range for interatomic potentials =    100000.000000 Angstroms

  General interatomic potentials :

--------------------------------------------------------------------------------
Atom  Types   Potential      Parameter       Value         Units   Cutoffs(Ang)
  1     2                                                            Min /  Max 
--------------------------------------------------------------------------------
Al   c Al   c Buckingham    Buckingham A     4.4747550    eV        0.000 12.000
                            Buckingham rho  0.99131700    Ang       
                            Buckingham C     0.0000000    eV*Ang^6  
--------------------------------------------------------------------------------
O    c Al   c Buckingham    Buckingham A     62.933909    eV        0.000 12.000
                            Buckingham rho  0.44365800    Ang       
                            Buckingham C     0.0000000    eV*Ang^6  
--------------------------------------------------------------------------------
O    c O    c Buckingham    Buckingham A     3322.7842    eV        0.000 12.000
                            Buckingham rho  0.29106500    Ang       
                            Buckingham C     0.0000000    eV*Ang^6  
--------------------------------------------------------------------------------
Al   c Al   c Rydberg       Rydberg A       0.15947200    eV        0.000 12.000
                            Rydberg B        5.9491437    None      
                            Rydberg r0       3.3658750    Ang       
--------------------------------------------------------------------------------
O    c Al   c Rydberg       Rydberg A       0.94594000E-01eV        0.000 12.000
                            Rydberg B        9.9854071    None      
                            Rydberg r0       2.3585700    Ang       
--------------------------------------------------------------------------------
O    c O    c Rydberg       Rydberg A        1.8650720    eV        0.000 12.000
                            Rydberg B        16.822405    None      
                            Rydberg r0       2.0050920    Ang       
--------------------------------------------------------------------------------
Al   c Al   c Many-body                                             0.000  8.000
--------------------------------------------------------------------------------
O    c Al   c Many-body                                             0.000  8.000
--------------------------------------------------------------------------------
O    c O    c Many-body                                             0.000  8.000
--------------------------------------------------------------------------------

  Embedded Atom Model Densities :

--------------------------------------------------------------------------------
  Atom(s)       Functional Form          A          B          C         n      
--------------------------------------------------------------------------------
  Al   c        Exponential         0.1477      2.018      3.366         0
  O    c        Exponential          1.000      6.871      2.005         0
--------------------------------------------------------------------------------


  Embedded Atom Model alloy parameters :

--------------------------------------------------------------------------------
  Atom(s)                          Scale factor 
--------------------------------------------------------------------------------
  Al    c                            1.000000
  O     c                            1.000000
--------------------------------------------------------------------------------

  Embedded Atom Model functional = Square Root

--------------------------------------------------------------------------------
  Atom                     A     
--------------------------------------------------------------------------------
  Al    c               1.987699
  O     c               2.116850
--------------------------------------------------------------------------------


  Manybody second derivative cross term cutoffs to be scaled by = 0.50000000

********************************************************************************
*  Output for configuration   1                                                *
********************************************************************************



  Final charges from EEM :

--------------------------------------------------------------------------------
    Atom no.            Atomic No.             Charge
--------------------------------------------------------------------------------
         1                  13                 2.8394671
         2                   8                -1.8929781
--------------------------------------------------------------------------------
  Electronegativity =        -2.506383 eV
  Self energy       =       255.141145 eV
--------------------------------------------------------------------------------

  Components of energy : 

--------------------------------------------------------------------------------
  Interatomic potentials     =          48.50474732 eV    
  Many-body potentials       =         -76.39549421 eV    
  Monopole - monopole (real) =        -125.83710485 eV    
  Monopole - monopole (recip)=        -212.59683905 eV    
  Monopole - monopole (total)=        -338.43394390 eV    
  Self energy (EEM/QEq/SM)   =         255.14114524 eV    
  SM Coulomb correction      =          47.67459685 eV    
--------------------------------------------------------------------------------
  Total lattice energy : 
    Primitive unit cell      =         -63.50894869 eV    
    Non-primitive unit cell  =        -190.52684607 eV    
--------------------------------------------------------------------------------
  Total lattice energy (in kJmol-1): 
    Primitive unit cell      =           -6127.6427 kJ/(mole unit cells)
    Non-primitive unit cell  =          -18382.9282 kJ/(mole unit cells)
--------------------------------------------------------------------------------


  Number of variables =        4

  Maximum number of calculations  =          1000
  Maximum Hessian update interval =            10
  Maximum step size               =   1.000000000
  Maximum parameter tolerance     =   0.000010000
  Maximum function  tolerance     =   0.000010000
  Maximum gradient  tolerance     =   0.001000000
  Maximum gradient  component     =   0.010000000

  Symmetry constrained optimisation

  Symmetry used only for first derivatives

  Cell parameters to be optimised using strains

  Newton-Raphson optimiser to be used

  BFGS hessian update to be used

  Lower half triangular hessian to be used

  Start of bulk optimisation :

  Cycle:      0 Energy:       -63.508949  Gnorm:     14.103849  CPU:    1.143
  ** Hessian calculated **
  Cycle:      1 Energy:       -63.616793  Gnorm:      0.162979  CPU:    1.146
  Cycle:      2 Energy:       -63.617078  Gnorm:      0.044827  CPU:    1.150


  **** Optimisation achieved ****


  Final energy =     -63.61707978 eV      
  Final Gnorm  =       0.00038306

  Components of energy : 

--------------------------------------------------------------------------------
  Interatomic potentials     =          49.38201901 eV    
  Many-body potentials       =         -77.02675221 eV    
  Monopole - monopole (real) =        -128.21707726 eV    
  Monopole - monopole (recip)=        -216.30969401 eV    
  Monopole - monopole (total)=        -344.52677127 eV    
  Self energy (EEM/QEq/SM)   =         259.50648809 eV    
  SM Coulomb correction      =          49.04793660 eV    
--------------------------------------------------------------------------------
  Total lattice energy : 
    Primitive unit cell      =         -63.61707978 eV    
    Non-primitive unit cell  =        -190.85123934 eV    
--------------------------------------------------------------------------------
  Total lattice energy (in kJmol-1): 
    Primitive unit cell      =           -6138.0757 kJ/(mole unit cells)
    Non-primitive unit cell  =          -18414.2272 kJ/(mole unit cells)
--------------------------------------------------------------------------------

  Final asymmetric unit coordinates :

--------------------------------------------------------------------------------
   No.  Atomic        x           y           z         Radius      Charge
        Label       (Frac)      (Frac)      (Frac)       (Angs) 
--------------------------------------------------------------------------------
     1  Al    c     0.000000    0.000000    0.355063    0.000000    2.861025
     2  O     c     0.303067    0.000000    0.250000    0.000000   -1.907350
--------------------------------------------------------------------------------

  Final Cartesian lattice vectors (Angstroms) :

        2.372748    1.369907    4.335799
       -2.372748    1.369907    4.335799
        0.000000   -2.739814    4.335799


  Final cell parameters and derivatives :

--------------------------------------------------------------------------------
       a            5.128912 Angstrom     dE/de1(xx)    -0.001277 eV/strain
       b            5.128912 Angstrom     dE/de2(yy)     0.000000 eV/strain
       c            5.128912 Angstrom     dE/de3(zz)     0.000773 eV/strain
       alpha       55.112883 Degrees      dE/de4(yz)     0.000000 eV/strain
       beta        55.112883 Degrees      dE/de5(xz)     0.000000 eV/strain
       gamma       55.112883 Degrees      dE/de6(xy)     0.000000 eV/strain
--------------------------------------------------------------------------------

  Primitive cell volume =            84.559640 Angs**3

  Density of cell =      4.004541 g/cm**3

  Non-primitive lattice parameters :

  a    =     4.745497  b   =     4.745497  c    =    13.007398
  alpha=    90.000000  beta=    90.000000  gamma=   120.000000

  Non-primitive cell volume =           253.678921 Angs**3


  Final internal derivatives :

--------------------------------------------------------------------------------
   No.  Atomic          a             b             c           Radius
        Label          (eV)          (eV)          (eV)        (eV/Angs)
--------------------------------------------------------------------------------
      1 Al    c       0.000000      0.000000     -0.000114      0.000000
      2 O     c      -0.000325      0.000000      0.000000      0.000000
--------------------------------------------------------------------------------
  Maximum abs         0.000325      0.000000      0.000114      0.000000
--------------------------------------------------------------------------------



  Elastic Constant Matrix: (Units=GPa)

-------------------------------------------------------------------------------
  Indices      1         2         3         4         5         6    
-------------------------------------------------------------------------------
       1    457.1783  171.9345  110.7821   36.8874   -0.0000    0.0000
       2    171.9345  457.1783  110.7821  -36.8874    0.0000   -0.0000
       3    110.7821  110.7821  472.3206   -0.0000    0.0000    0.0000
       4     36.8874  -36.8874   -0.0000  107.6653    0.0000    0.0000
       5     -0.0000    0.0000    0.0000    0.0000  107.6653   36.8874
       6      0.0000   -0.0000    0.0000    0.0000   36.8874  142.6219
-------------------------------------------------------------------------------


  Elastic Compliance Matrix: (Units=1/GPa)

-------------------------------------------------------------------------------
  Indices      1         2         3         4         5         6    
-------------------------------------------------------------------------------
       1    0.002790 -0.001057 -0.000406 -0.001318  0.000000 -0.000000
       2   -0.001057  0.002790 -0.000406  0.001318 -0.000000  0.000000
       3   -0.000406 -0.000406  0.002308 -0.000000  0.000000 -0.000000
       4   -0.001318  0.001318 -0.000000  0.010191 -0.000000 -0.000000
       5    0.000000 -0.000000  0.000000 -0.000000  0.010191 -0.002636
       6   -0.000000  0.000000 -0.000000 -0.000000 -0.002636  0.007693
-------------------------------------------------------------------------------

  Mechanical properties :

-------------------------------------------------------------------------------
  Convention :                    Reuss         Voigt         Hill
-------------------------------------------------------------------------------
  Bulk  Modulus (GPa)     =     241.10332     241.51940     241.31136
  Shear Modulus (GPa)     =     121.69984     137.80237     129.75111
-------------------------------------------------------------------------------
  Velocity S-wave (km/s)  =       5.51275       5.86613       5.69219
  Velocity P-wave (km/s)  =      10.03634      10.30502      10.17157
-------------------------------------------------------------------------------
  Compressibility (1/GPa) =    0.00414760
-------------------------------------------------------------------------------
  Stress axis :                     x             y             z
-------------------------------------------------------------------------------
  Youngs Moduli (GPa)     =     358.46804     358.46804     433.30482
-------------------------------------------------------------------------------
  Poissons Ratio (x)      =                     0.37889       0.17609
  Poissons Ratio (y)      =       0.37889                     0.17609
  Poissons Ratio (z)      =       0.14568       0.14568
-------------------------------------------------------------------------------


  Piezoelectric Strain Matrix: (Units=C/m**2)

-------------------------------------------------------------------------------
  Indices      1         2         3         4         5         6    
-------------------------------------------------------------------------------
       x    -0.00000   0.00000   0.00000  -0.00000   0.00000  -0.00000
       y    -0.00000   0.00000   0.00000   0.00000   0.00000   0.00000
       z    -0.00000   0.00000   0.00000  -0.00000   0.00000  -0.00000
-------------------------------------------------------------------------------


  Piezoelectric Stress Matrix: (Units=10**-11 C/N)

-------------------------------------------------------------------------------
  Indices      1         2         3         4         5         6    
-------------------------------------------------------------------------------
       x    -0.00000   0.00000   0.00000   0.00000   0.00000  -0.00000
       y    -0.00000   0.00000   0.00000   0.00000   0.00000  -0.00000
       z    -0.00000   0.00000   0.00000  -0.00000   0.00000  -0.00000
-------------------------------------------------------------------------------


  Static dielectric constant tensor : 

-------------------------------------------------------------------------------
              x         y         z
-------------------------------------------------------------------------------
       x     9.31534  -0.00000  -0.00000
       y    -0.00000   9.31534  -0.00000
       z    -0.00000  -0.00000  10.81408
--------------------------------------------------------------------------------

  Static refractive indices : 

-------------------------------------------------------------------------------
    1 =    3.05210      2 =    3.05210      3 =    3.28848
-------------------------------------------------------------------------------


  Phonon Calculation : 

  Number of k points for this configuration =        1

--------------------------------------------------------------------------------
  K point      1 =   0.000000  0.000000  0.000000  Weight =    1.000
--------------------------------------------------------------------------------

  Frequencies (cm-1) [NB: Negative implies an imaginary mode]:

   -0.00    0.00    0.00  307.70  309.40  309.40  311.53  311.53  339.27
  366.74  366.74  378.13  394.12  394.12  396.52  396.52  449.84  454.08
  454.08  504.69  504.69  661.21  676.54  730.87  739.97  768.00  768.00
  803.12  803.12  933.60


--------------------------------------------------------------------------------
  Phonon properties (per mole of unit cells): Temperature =      0.000 K
--------------------------------------------------------------------------------
  Zero point energy             =        0.857575 eV
--------------------------------------------------------------------------------

  Time to end of optimisation =       6.4602 seconds



  Final charges from EEM :

--------------------------------------------------------------------------------
    Atom no.            Atomic No.             Charge
--------------------------------------------------------------------------------
         1                  13                 2.8610245
         2                   8                -1.9073497
--------------------------------------------------------------------------------
  Electronegativity =        -2.632637 eV
  Self energy       =       259.506488 eV
--------------------------------------------------------------------------------

  Peak dynamic memory used =       2.02 MB 


  Timing analysis for GULP :

--------------------------------------------------------------------------------
  Task / Subroutine                                          Time (Seconds)
--------------------------------------------------------------------------------
  Calculation of reciprocal space energy and derivatives          0.0015
  Calculation of reciprocal space energy using symmetry           0.0005
  Calculation of real space energy and derivatives                0.0123
  Calculation of real space energy using symmetry                 0.0072
  Calculation of many-body energy and derivatives                 6.4118
  Calculation of phonons                                          1.4936
  Calculation of matrix diagonalisation                           0.0017
  Electronegativity equalisation                                  0.0084
  Calculation of variable charge 2nd derivatives                  0.0003
  Symmetry generation of equivalent positions                     0.0001
--------------------------------------------------------------------------------
  Total CPU time                                                  6.4604
--------------------------------------------------------------------------------


  Job Finished at 12:14.02 25th August     2022                               

